<event>
 4    1  0.2177230E+006  0.2394281E+02  0.7546771E-02  0.1676668E+00
         -4   -1    0    0    0  501 -0.00000000000E+00  0.00000000000E+00  0.99810487980E+01  0.99810487980E+01  0.00000000000E+00 0. -1.
         21   -1    0    0  501  502  0.00000000000E+00 -0.00000000000E+00 -0.91877297230E+02  0.91877297230E+02  0.00000000000E+00 0.  1.
         21    1    1    2  503  502  0.68174367011E+01  0.22951700019E+02 -0.72130616464E+02  0.76000551369E+02  0.00000000000E+00 0.  1.
         -4    1    1    2    0  503 -0.68174367011E+01 -0.22951700019E+02 -0.97656319689E+01  0.25857794660E+02  0.00000000000E+00 0. -1.
<mgrwt>
<rscale>  2 0.23942806E+02</rscale>
<asrwt>0</asrwt>
<pdfrwt beam="2">  1       21 0.14134969E-01 0.23942806E+02</pdfrwt>
<pdfrwt beam="1">  1       -4 0.15355460E-02 0.23942806E+02</pdfrwt>
<totfact> 0.15981567E+06</totfact>
</mgrwt>
</event>
<event>
 4    1  0.2177230E+006  0.2032273E+02  0.7546771E-02  0.1738985E+00
         21   -1    0    0  503  502  0.00000000000E+00  0.00000000000E+00  0.60288666238E+01  0.60288666238E+01  0.00000000000E+00 0. -1.
          1   -1    0    0  502    0 -0.00000000000E+00 -0.00000000000E+00 -0.15561004148E+03  0.15561004148E+03  0.00000000000E+00 0. -1.
         21    1    1    2  503  501 -0.19220896822E+02 -0.66008072781E+01 -0.14323888677E+02  0.24863373025E+02  0.00000000000E+00 0. -1.
          1    1    1    2  501    0  0.19220896822E+02  0.66008072781E+01 -0.13525728618E+03  0.13677553508E+03  0.00000000000E+00 0. -1.
<mgrwt>
<rscale>  2 0.20322734E+02</rscale>
<asrwt>0</asrwt>
<pdfrwt beam="1">  1       21 0.92751792E-03 0.20322734E+02</pdfrwt>
<pdfrwt beam="2">  1        1 0.23940007E-01 0.20322734E+02</pdfrwt>
<totfact> 0.59753748E+06</totfact>
</mgrwt>
</event>
<event>
 4    1  0.2177230E+006  0.2436381E+02  0.7546771E-02  0.1670311E+00
          2   -1    0    0  502    0 -0.00000000000E+00  0.00000000000E+00  0.13939666749E+04  0.13939666749E+04  0.00000000000E+00 0.  1.
         21   -1    0    0  503  502  0.00000000000E+00 -0.00000000000E+00 -0.69615206259E+01  0.69615206259E+01  0.00000000000E+00 0. -1.
         21    1    1    2  503  501  0.13566190115E+02 -0.20237436435E+02  0.14799987272E+02  0.28506753076E+02  0.00000000000E+00 0. -1.
          2    1    1    2  501    0 -0.13566190115E+02  0.20237436435E+02  0.13722051670E+04  0.13724214424E+04  0.00000000000E+00 0.  1.
<mgrwt>
<rscale>  2 0.24363812E+02</rscale>
<asrwt>0</asrwt>
<pdfrwt beam="2">  1       21 0.10710043E-02 0.24363812E+02</pdfrwt>
<pdfrwt beam="1">  1        2 0.21445619E+00 0.24363812E+02</pdfrwt>
<totfact> 0.58164307E+05</totfact>
</mgrwt>
</event>
<event>
 4    1  0.2177230E+006  0.3708633E+02  0.7546771E-02  0.1530817E+00
         21   -1    0    0  501  502  0.00000000000E+00  0.00000000000E+00  0.24204093793E+01  0.24204093793E+01  0.00000000000E+00 0.  1.
          1   -1    0    0  503    0 -0.00000000000E+00 -0.00000000000E+00 -0.69909317295E+03  0.69909317295E+03  0.00000000000E+00 0.  1.
         21    1    1    2  503  502 -0.35901126425E+02  0.93008100747E+01 -0.19659108284E+03  0.20005861591E+03  0.00000000000E+00 0.  1.
          1    1    1    2  501    0  0.35901126425E+02 -0.93008100747E+01 -0.50008168073E+03  0.50145496642E+03  0.00000000000E+00 0.  1.
<mgrwt>
<rscale>  2 0.37086331E+02</rscale>
<asrwt>0</asrwt>
<pdfrwt beam="1">  1       21 0.37237036E-03 0.37086331E+02</pdfrwt>
<pdfrwt beam="2">  1        1 0.10755289E+00 0.37086331E+02</pdfrwt>
<totfact> 0.44510597E+06</totfact>
</mgrwt>
</event>
<event>
 4    1  0.2177230E+006  0.4676694E+02  0.7546771E-02  0.1463603E+00
          2   -1    0    0  503    0 -0.00000000000E+00  0.00000000000E+00  0.88312977801E+03  0.88312977801E+03  0.00000000000E+00 0.  1.
         21   -1    0    0  501  502  0.00000000000E+00 -0.00000000000E+00 -0.20524714623E+02  0.20524714623E+02  0.00000000000E+00 0. -1.
         21    1    1    2  503  502 -0.36325399497E+02  0.29455260469E+02  0.76108485859E+01  0.47382191107E+02  0.00000000000E+00 0. -1.
          2    1    1    2  501    0  0.36325399497E+02 -0.29455260469E+02  0.85499421480E+03  0.85627230152E+03  0.00000000000E+00 0.  1.
<mgrwt>
<rscale>  2 0.46766944E+02</rscale>
<asrwt>0</asrwt>
<pdfrwt beam="2">  1       21 0.31576491E-02 0.46766944E+02</pdfrwt>
<pdfrwt beam="1">  1        2 0.13586609E+00 0.46766944E+02</pdfrwt>
<totfact> 0.21592015E+05</totfact>
</mgrwt>
</event>
<event>
 4    1  0.2177230E+006  0.2276134E+02  0.7546771E-02  0.1695408E+00
         21   -1    0    0  503  502  0.00000000000E+00  0.00000000000E+00  0.12559525052E+02  0.12559525052E+02  0.00000000000E+00 0. -1.
         -2   -1    0    0    0  501 -0.00000000000E+00 -0.00000000000E+00 -0.46747592680E+02  0.46747592680E+02  0.00000000000E+00 0. -1.
         21    1    1    2  503  501 -0.14010297103E+02  0.17938510062E+02 -0.69247758567E+01  0.23791407878E+02  0.00000000000E+00 0. -1.
         -2    1    1    2    0  502  0.14010297103E+02 -0.17938510062E+02 -0.27263291772E+02  0.35515709853E+02  0.00000000000E+00 0. -1.
<mgrwt>
<rscale>  2 0.22761339E+02</rscale>
<asrwt>0</asrwt>
<pdfrwt beam="1">  1       21 0.19322346E-02 0.22761339E+02</pdfrwt>
<pdfrwt beam="2">  1       -2 0.71919374E-02 0.22761339E+02</pdfrwt>
<totfact> 0.71474422E+06</totfact>
</mgrwt>
</event>
<event>
 4    1  0.2177230E+006  0.2274738E+02  0.7546771E-02  0.1695638E+00
          2   -1    0    0  502    0 -0.00000000000E+00  0.00000000000E+00  0.34935281545E+03  0.34935281545E+03  0.00000000000E+00 0. -1.
         21   -1    0    0  503  502  0.00000000000E+00 -0.00000000000E+00 -0.99274144821E+02  0.99274144821E+02  0.00000000000E+00 0. -1.
         21    1    1    2  503  501  0.21650200514E+02 -0.69794188213E+01 -0.97594502071E+02  0.10021043012E+03  0.00000000000E+00 0. -1.
          2    1    1    2  501    0 -0.21650200514E+02  0.69794188213E+01  0.34767317270E+03  0.34841653015E+03  0.00000000000E+00 0. -1.
<mgrwt>
<rscale>  2 0.22747384E+02</rscale>
<asrwt>0</asrwt>
<pdfrwt beam="2">  1       21 0.15272945E-01 0.22747384E+02</pdfrwt>
<pdfrwt beam="1">  1        2 0.53746587E-01 0.22747384E+02</pdfrwt>
<totfact> 0.41293913E+04</totfact>
</mgrwt>
</event>
<event>
 4    1  0.2177230E+006  0.4511865E+02  0.7546771E-02  0.1473602E+00
         21   -1    0    0  503  502  0.00000000000E+00  0.00000000000E+00  0.27857355676E+02  0.27857355676E+02  0.00000000000E+00 0. -1.
         -1   -1    0    0    0  501 -0.00000000000E+00 -0.00000000000E+00 -0.85079869772E+02  0.85079869772E+02  0.00000000000E+00 0.  1.
         21    1    1    2  503  501  0.19307316541E+02  0.40778917868E+02 -0.74002239707E+01  0.45721504014E+02  0.00000000000E+00 0. -1.
         -1    1    1    2    0  502 -0.19307316541E+02 -0.40778917868E+02 -0.49822290126E+02  0.67215721434E+02  0.00000000000E+00 0.  1.
<mgrwt>
<rscale>  2 0.45118650E+02</rscale>
<asrwt>0</asrwt>
<pdfrwt beam="1">  1       21 0.42857470E-02 0.45118650E+02</pdfrwt>
<pdfrwt beam="2">  1       -1 0.13089211E-01 0.45118650E+02</pdfrwt>
<totfact> 0.10364409E+06</totfact>
</mgrwt>
</event>
<event>
 4    1  0.2177230E+006  0.3953873E+02  0.7546771E-02  0.1511634E+00
         -3   -1    0    0    0  501 -0.00000000000E+00  0.00000000000E+00  0.29582536326E+02  0.29582536326E+02  0.00000000000E+00 0.  1.
         21   -1    0    0  501  502  0.00000000000E+00 -0.00000000000E+00 -0.54576149449E+03  0.54576149449E+03  0.00000000000E+00 0. -1.
         21    1    1    2  503  502  0.54929445620E+00  0.39534916444E+02 -0.53147940996E+03  0.53294809743E+03  0.00000000000E+00 0. -1.
         -3    1    1    2    0  503 -0.54929445620E+00 -0.39534916444E+02  0.15300451795E+02  0.42395933387E+02  0.00000000000E+00 0.  1.
<mgrwt>
<rscale>  2 0.39538732E+02</rscale>
<asrwt>0</asrwt>
<pdfrwt beam="2">  1       21 0.83963303E-01 0.39538732E+02</pdfrwt>
<pdfrwt beam="1">  1       -3 0.45511597E-02 0.39538732E+02</pdfrwt>
<totfact> 0.14338467E+04</totfact>
</mgrwt>
</event>
<event>
 4    1  0.2177230E+006  0.2524736E+02  0.7546771E-02  0.1657474E+00
         21   -1    0    0  501  502  0.00000000000E+00  0.00000000000E+00  0.99893247430E+03  0.99893247430E+03  0.00000000000E+00 0.  1.
          1   -1    0    0  503    0 -0.00000000000E+00 -0.00000000000E+00 -0.97507364180E+00  0.97507364180E+00  0.00000000000E+00 0. -1.
         21    1    1    2  503  502 -0.25170729875E+02  0.19655895548E+01  0.79288061603E+03  0.79328248465E+03  0.00000000000E+00 0.  1.
          1    1    1    2  501    0  0.25170729875E+02 -0.19655895548E+01  0.20507678463E+03  0.20662506329E+03  0.00000000000E+00 0. -1.
<mgrwt>
<rscale>  2 0.25247360E+02</rscale>
<asrwt>0</asrwt>
<pdfrwt beam="1">  1       21 0.15368110E+00 0.25247360E+02</pdfrwt>
<pdfrwt beam="2">  1        1 0.15001213E-03 0.25247360E+02</pdfrwt>
<totfact> 0.54739109E+05</totfact>
</mgrwt>
</event>
<event>
 4    1  0.2177230E+006  0.4186728E+02  0.7546771E-02  0.1494903E+00
         21   -1    0    0  501  502  0.00000000000E+00  0.00000000000E+00  0.18368313756E+02  0.18368313756E+02  0.00000000000E+00 0.  1.
         -2   -1    0    0    0  501 -0.00000000000E+00 -0.00000000000E+00 -0.19115784225E+03  0.19115784225E+03  0.00000000000E+00 0.  1.
         21    1    1    2  503  502 -0.17952657235E+02  0.37822894957E+02 -0.12257994621E+02  0.43624852055E+02  0.00000000000E+00 0.  1.
         -2    1    1    2    0  503  0.17952657235E+02 -0.37822894957E+02 -0.16053153387E+03  0.16590130395E+03  0.00000000000E+00 0.  1.
<mgrwt>
<rscale>  2 0.41867282E+02</rscale>
<asrwt>0</asrwt>
<pdfrwt beam="1">  1       21 0.28258946E-02 0.41867282E+02</pdfrwt>
<pdfrwt beam="2">  1       -2 0.29408897E-01 0.41867282E+02</pdfrwt>
<totfact> 0.49642152E+05</totfact>
</mgrwt>
</event>
<event>
 4    1  0.2177230E+006  0.5016012E+02  0.7546771E-02  0.1444480E+00
         -1   -1    0    0    0  501 -0.00000000000E+00  0.00000000000E+00  0.59698362171E+03  0.59698362171E+03  0.00000000000E+00 0. -1.
         21   -1    0    0  503  502  0.00000000000E+00 -0.00000000000E+00 -0.42335772979E+01  0.42335772979E+01  0.00000000000E+00 0. -1.
         21    1    1    2  503  501  0.39001869598E+02  0.31541905350E+02  0.27624020230E+03  0.28075734539E+03  0.00000000000E+00 0. -1.
         -1    1    1    2    0  502 -0.39001869598E+02 -0.31541905350E+02  0.31650984212E+03  0.32045985362E+03  0.00000000000E+00 0. -1.
<mgrwt>
<rscale>  2 0.50160120E+02</rscale>
<asrwt>0</asrwt>
<pdfrwt beam="2">  1       21 0.65132006E-03 0.50160120E+02</pdfrwt>
<pdfrwt beam="1">  1       -1 0.91843567E-01 0.50160120E+02</pdfrwt>
<totfact> 0.72605675E+05</totfact>
</mgrwt>
</event>
<event>
 4    1  0.2177230E+006  0.2336563E+02  0.7546771E-02  0.1685651E+00
          2   -1    0    0  503    0 -0.00000000000E+00  0.00000000000E+00  0.47685202036E+03  0.47685202036E+03  0.00000000000E+00 0. -1.
         21   -1    0    0  501  502  0.00000000000E+00 -0.00000000000E+00 -0.36370818893E+01  0.36370818893E+01  0.00000000000E+00 0. -1.
         21    1    1    2  503  502  0.10752762346E+02 -0.20744420722E+02  0.37738987120E+02  0.44386755209E+02  0.00000000000E+00 0. -1.
          2    1    1    2  501    0 -0.10752762346E+02  0.20744420722E+02  0.43547595135E+03  0.43610234704E+03  0.00000000000E+00 0. -1.
<mgrwt>
<rscale>  2 0.23365635E+02</rscale>
<asrwt>0</asrwt>
<pdfrwt beam="2">  1       21 0.55955144E-03 0.23365635E+02</pdfrwt>
<pdfrwt beam="1">  1        2 0.73361800E-01 0.23365635E+02</pdfrwt>
<totfact> 0.54283389E+06</totfact>
</mgrwt>
</event>
<event>
 4    1  0.2177230E+006  0.2683192E+02  0.7546771E-02  0.1636003E+00
         -2   -1    0    0    0  501 -0.00000000000E+00  0.00000000000E+00  0.74194942761E+02  0.74194942761E+02  0.00000000000E+00 0. -1.
         21   -1    0    0  501  502  0.00000000000E+00 -0.00000000000E+00 -0.81185466686E+02  0.81185466686E+02  0.00000000000E+00 0. -1.
         21    1    1    2  503  502 -0.68820174357E+01  0.25934338085E+02 -0.76394889262E+02  0.80969939862E+02  0.00000000000E+00 0. -1.
         -2    1    1    2    0  503  0.68820174357E+01 -0.25934338085E+02  0.69404365338E+02  0.74410469585E+02  0.00000000000E+00 0. -1.
<mgrwt>
<rscale>  2 0.26831922E+02</rscale>
<asrwt>0</asrwt>
<pdfrwt beam="2">  1       21 0.12490072E-01 0.26831922E+02</pdfrwt>
<pdfrwt beam="1">  1       -2 0.11414607E-01 0.26831922E+02</pdfrwt>
<totfact> 0.18903222E+05</totfact>
</mgrwt>
</event>
<event>
 4    1  0.2177230E+006  0.2460049E+02  0.7546771E-02  0.1666807E+00
         -1   -1    0    0    0  501 -0.00000000000E+00  0.00000000000E+00  0.30179372183E+01  0.30179372183E+01  0.00000000000E+00 0. -1.
         21   -1    0    0  503  502  0.00000000000E+00 -0.00000000000E+00 -0.37146581467E+03  0.37146581467E+03  0.00000000000E+00 0.  1.
         21    1    1    2  503  501 -0.17701570322E+02 -0.17083276803E+02 -0.31124079462E+03  0.31221149270E+03  0.00000000000E+00 0.  1.
         -1    1    1    2    0  502  0.17701570322E+02  0.17083276803E+02 -0.57207082824E+02  0.62272259180E+02  0.00000000000E+00 0. -1.
<mgrwt>
<rscale>  2 0.24600487E+02</rscale>
<asrwt>0</asrwt>
<pdfrwt beam="2">  1       21 0.57148522E-01 0.24600487E+02</pdfrwt>
<pdfrwt beam="1">  1       -1 0.46429856E-03 0.24600487E+02</pdfrwt>
<totfact> 0.10349492E+06</totfact>
</mgrwt>
</event>
<event>
 4    1  0.2177230E+006  0.2734495E+02  0.7546771E-02  0.1629439E+00
         21   -1    0    0  503  502  0.00000000000E+00  0.00000000000E+00  0.14861628906E+02  0.14861628906E+02  0.00000000000E+00 0.  1.
          2   -1    0    0  502    0 -0.00000000000E+00 -0.00000000000E+00 -0.24965650558E+03  0.24965650558E+03  0.00000000000E+00 0.  1.
         21    1    1    2  503  501 -0.62886423712E+01 -0.26612017911E+02  0.78530758166E+00  0.27356228325E+02  0.00000000000E+00 0.  1.
          2    1    1    2  501    0  0.62886423712E+01  0.26612017911E+02 -0.23558018426E+03  0.23716190616E+03  0.00000000000E+00 0.  1.
<mgrwt>
<rscale>  2 0.27344954E+02</rscale>
<asrwt>0</asrwt>
<pdfrwt beam="1">  1       21 0.22864044E-02 0.27344954E+02</pdfrwt>
<pdfrwt beam="2">  1        2 0.38408693E-01 0.27344954E+02</pdfrwt>
<totfact> 0.12697338E+06</totfact>
</mgrwt>
</event>
<event>
 4    1  0.2177230E+006  0.3213047E+02  0.7546771E-02  0.1575667E+00
         21   -1    0    0  501  502  0.00000000000E+00  0.00000000000E+00  0.97202055167E+01  0.97202055167E+01  0.00000000000E+00 0. -1.
          2   -1    0    0  503    0 -0.00000000000E+00 -0.00000000000E+00 -0.19316850761E+03  0.19316850761E+03  0.00000000000E+00 0. -1.
         21    1    1    2  503  502  0.19909953491E+02 -0.25218269414E+02 -0.23659786623E+02  0.39901790227E+02  0.00000000000E+00 0. -1.
          2    1    1    2  501    0 -0.19909953491E+02  0.25218269414E+02 -0.15978851547E+03  0.16298692290E+03  0.00000000000E+00 0. -1.
<mgrwt>
<rscale>  2 0.32130474E+02</rscale>
<asrwt>0</asrwt>
<pdfrwt beam="1">  1       21 0.14954163E-02 0.32130474E+02</pdfrwt>
<pdfrwt beam="2">  1        2 0.29718231E-01 0.32130474E+02</pdfrwt>
<totfact> 0.32773348E+06</totfact>
</mgrwt>
</event>
<event>
 4    1  0.2177230E+006  0.2134162E+02  0.7546771E-02  0.1719894E+00
          1   -1    0    0  503    0 -0.00000000000E+00  0.00000000000E+00  0.23322770806E+02  0.23322770806E+02  0.00000000000E+00 0. -1.
         21   -1    0    0  501  502  0.00000000000E+00 -0.00000000000E+00 -0.40790823588E+02  0.40790823588E+02  0.00000000000E+00 0. -1.
         21    1    1    2  503  502  0.21325881247E+02 -0.81936341944E+00 -0.31878201050E+02  0.38362537319E+02  0.00000000000E+00 0. -1.
          1    1    1    2  501    0 -0.21325881247E+02  0.81936341944E+00  0.14410148268E+02  0.25751057075E+02  0.00000000000E+00 0. -1.
<mgrwt>
<rscale>  2 0.21341616E+02</rscale>
<asrwt>0</asrwt>
<pdfrwt beam="2">  1       21 0.62755113E-02 0.21341616E+02</pdfrwt>
<pdfrwt beam="1">  1        1 0.35881186E-02 0.21341616E+02</pdfrwt>
<totfact> 0.33345989E+06</totfact>
</mgrwt>
</event>
<event>
 4    1  0.2177230E+006  0.2213278E+02  0.7546771E-02  0.1705966E+00
         21   -1    0    0  503  502  0.00000000000E+00  0.00000000000E+00  0.11816746198E+02  0.11816746198E+02  0.00000000000E+00 0. -1.
          2   -1    0    0  502    0 -0.00000000000E+00 -0.00000000000E+00 -0.72808028906E+02  0.72808028906E+02  0.00000000000E+00 0. -1.
         21    1    1    2  503  501 -0.21151256295E+02 -0.65180029532E+01 -0.27292444845E+01  0.22300421090E+02  0.00000000000E+00 0. -1.
          2    1    1    2  501    0  0.21151256295E+02  0.65180029532E+01 -0.58262038223E+02  0.62324354014E+02  0.00000000000E+00 0. -1.
<mgrwt>
<rscale>  2 0.22132781E+02</rscale>
<asrwt>0</asrwt>
<pdfrwt beam="1">  1       21 0.18179609E-02 0.22132781E+02</pdfrwt>
<pdfrwt beam="2">  1        2 0.11201235E-01 0.22132781E+02</pdfrwt>
<totfact> 0.63535042E+06</totfact>
</mgrwt>
</event>
<event>
 4    1  0.2177230E+006  0.2715932E+02  0.7546771E-02  0.1631793E+00
          2   -1    0    0  503    0 -0.00000000000E+00  0.00000000000E+00  0.23944321139E+03  0.23944321139E+03  0.00000000000E+00 0.  1.
         21   -1    0    0  501  502  0.00000000000E+00 -0.00000000000E+00 -0.31335323643E+01  0.31335323643E+01  0.00000000000E+00 0.  1.
         21    1    1    2  503  502  0.16589529675E+02  0.21503860372E+02  0.10239081778E+03  0.10593161979E+03  0.00000000000E+00 0.  1.
          2    1    1    2  501    0 -0.16589529675E+02 -0.21503860372E+02  0.13391886125E+03  0.13664512397E+03  0.00000000000E+00 0.  1.
<mgrwt>
<rscale>  2 0.27159317E+02</rscale>
<asrwt>0</asrwt>
<pdfrwt beam="2">  1       21 0.48208209E-03 0.27159317E+02</pdfrwt>
<pdfrwt beam="1">  1        2 0.36837403E-01 0.27159317E+02</pdfrwt>
<totfact> 0.13956141E+07</totfact>
</mgrwt>
</event>
<event>
 4    1  0.2177230E+006  0.2703832E+02  0.7546771E-02  0.1633340E+00
         -4   -1    0    0    0  501 -0.00000000000E+00  0.00000000000E+00  0.12409863338E+01  0.12409863338E+01  0.00000000000E+00 0.  1.
         21   -1    0    0  503  502  0.00000000000E+00 -0.00000000000E+00 -0.84538827555E+03  0.84538827555E+03  0.00000000000E+00 0. -1.
         21    1    1    2  503  501 -0.26669432545E+02  0.44510784790E+01 -0.65514862620E+03  0.65570633148E+03  0.00000000000E+00 0. -1.
         -4    1    1    2    0  502  0.26669432545E+02 -0.44510784790E+01 -0.18899866302E+03  0.19092293041E+03  0.00000000000E+00 0.  1.
<mgrwt>
<rscale>  2 0.27038320E+02</rscale>
<asrwt>0</asrwt>
<pdfrwt beam="2">  1       21 0.13005905E+00 0.27038320E+02</pdfrwt>
<pdfrwt beam="1">  1       -4 0.19092198E-03 0.27038320E+02</pdfrwt>
<totfact> 0.43552434E+05</totfact>
</mgrwt>
</event>
<event>
 4    1  0.2177230E+006  0.2311649E+02  0.7546771E-02  0.1689629E+00
         21   -1    0    0  503  502  0.00000000000E+00  0.00000000000E+00  0.71155330722E+01  0.71155330722E+01  0.00000000000E+00 0. -1.
          2   -1    0    0  502    0 -0.00000000000E+00 -0.00000000000E+00 -0.54655042891E+03  0.54655042891E+03  0.00000000000E+00 0. -1.
         21    1    1    2  503  501  0.21234096193E+02  0.91370314357E+01 -0.12606239998E+02  0.26330390644E+02  0.00000000000E+00 0. -1.
          2    1    1    2  501    0 -0.21234096193E+02 -0.91370314357E+01 -0.52682865584E+03  0.52733557134E+03  0.00000000000E+00 0. -1.
<mgrwt>
<rscale>  2 0.23116492E+02</rscale>
<asrwt>0</asrwt>
<pdfrwt beam="1">  1       21 0.10946971E-02 0.23116492E+02</pdfrwt>
<pdfrwt beam="2">  1        2 0.84084703E-01 0.23116492E+02</pdfrwt>
<totfact> 0.17316744E+06</totfact>
</mgrwt>
</event>
<event>
 4    1  0.2177230E+006  0.2811597E+02  0.7546771E-02  0.1619899E+00
         21   -1    0    0  503  502  0.00000000000E+00  0.00000000000E+00  0.47229877277E+01  0.47229877277E+01  0.00000000000E+00 0. -1.
         -2   -1    0    0    0  501 -0.00000000000E+00 -0.00000000000E+00 -0.17730200474E+04  0.17730200474E+04  0.00000000000E+00 0. -1.
         21    1    1    2  503  501 -0.16091214242E+02  0.23056032654E+02 -0.38271944120E+02  0.47489467509E+02  0.00000000000E+00 0. -1.
         -2    1    1    2    0  502  0.16091214242E+02 -0.23056032654E+02 -0.17300251155E+04  0.17302535676E+04  0.00000000000E+00 0. -1.
<mgrwt>
<rscale>  2 0.28115971E+02</rscale>
<asrwt>0</asrwt>
<pdfrwt beam="1">  1       21 0.72661301E-03 0.28115971E+02</pdfrwt>
<pdfrwt beam="2">  1       -2 0.27277250E+00 0.28115971E+02</pdfrwt>
<totfact> 0.24693832E+04</totfact>
</mgrwt>
</event>
<event>
 4    1  0.2177230E+006  0.2904800E+02  0.7546771E-02  0.1608857E+00
         21   -1    0    0  501  502  0.00000000000E+00  0.00000000000E+00  0.67302763037E+00  0.67302763037E+00  0.00000000000E+00 0. -1.
         -4   -1    0    0    0  501 -0.00000000000E+00 -0.00000000000E+00 -0.13214316652E+04  0.13214316652E+04  0.00000000000E+00 0.  1.
         21    1    1    2  503  502 -0.28315591934E+02 -0.64817945899E+01 -0.51073722121E+03  0.51156260178E+03  0.00000000000E+00 0. -1.
         -4    1    1    2    0  503  0.28315591934E+02  0.64817945899E+01 -0.81002141632E+03  0.81054209101E+03  0.00000000000E+00 0.  1.
<mgrwt>
<rscale>  2 0.29048002E+02</rscale>
<asrwt>0</asrwt>
<pdfrwt beam="1">  1       21 0.10354226E-03 0.29048002E+02</pdfrwt>
<pdfrwt beam="2">  1       -4 0.20329807E+00 0.29048002E+02</pdfrwt>
<totfact> 0.47302038E+05</totfact>
</mgrwt>
</event>
<event>
 4    1  0.2177230E+006  0.2038974E+02  0.7546771E-02  0.1737687E+00
         21   -1    0    0  503  502  0.00000000000E+00  0.00000000000E+00  0.32594515403E+00  0.32594515403E+00  0.00000000000E+00 0. -1.
          2   -1    0    0  502    0 -0.00000000000E+00 -0.00000000000E+00 -0.14843960743E+04  0.14843960743E+04  0.00000000000E+00 0. -1.
         21    1    1    2  503  501 -0.95193550256E+01  0.18031178872E+02 -0.46354467187E+03  0.46399289256E+03  0.00000000000E+00 0. -1.
          2    1    1    2  501    0  0.95193550256E+01 -0.18031178872E+02 -0.10205254573E+04  0.10207291269E+04  0.00000000000E+00 0. -1.
<mgrwt>
<rscale>  2 0.20389741E+02</rscale>
<asrwt>0</asrwt>
<pdfrwt beam="1">  1       21 0.50145717E-04 0.20389741E+02</pdfrwt>
<pdfrwt beam="2">  1        2 0.22836722E+00 0.20389741E+02</pdfrwt>
<totfact> 0.42940499E+07</totfact>
</mgrwt>
</event>
<event>
 4    1  0.2177230E+006  0.2360759E+02  0.7546771E-02  0.1681846E+00
         21   -1    0    0  501  502  0.00000000000E+00  0.00000000000E+00  0.70575652474E+02  0.70575652474E+02  0.00000000000E+00 0.  1.
          2   -1    0    0  503    0 -0.00000000000E+00 -0.00000000000E+00 -0.59295795404E+02  0.59295795404E+02  0.00000000000E+00 0.  1.
         21    1    1    2  503  502  0.22768832574E+02  0.62368562131E+01  0.66097301775E+02  0.70186689722E+02  0.00000000000E+00 0.  1.
          2    1    1    2  501    0 -0.22768832574E+02 -0.62368562131E+01 -0.54817444705E+02  0.59684758156E+02  0.00000000000E+00 0.  1.
<mgrwt>
<rscale>  2 0.23607586E+02</rscale>
<asrwt>0</asrwt>
<pdfrwt beam="1">  1       21 0.10857793E-01 0.23607586E+02</pdfrwt>
<pdfrwt beam="2">  1        2 0.91224301E-02 0.23607586E+02</pdfrwt>
<totfact> 0.47868224E+05</totfact>
</mgrwt>
</event>
<event>
 4    1  0.2177230E+006  0.2195026E+02  0.7546771E-02  0.1709114E+00
          2   -1    0    0  503    0 -0.00000000000E+00  0.00000000000E+00  0.39911721828E+03  0.39911721828E+03  0.00000000000E+00 0.  1.
         21   -1    0    0  501  502  0.00000000000E+00 -0.00000000000E+00 -0.41270214239E+03  0.41270214239E+03  0.00000000000E+00 0.  1.
         21    1    1    2  503  502 -0.89231287660E+01 -0.20054715977E+02 -0.41210804253E+03  0.41269220077E+03  0.00000000000E+00 0.  1.
          2    1    1    2  501    0  0.89231287660E+01  0.20054715977E+02  0.39852311842E+03  0.39912715990E+03  0.00000000000E+00 0.  1.
<mgrwt>
<rscale>  2 0.21950259E+02</rscale>
<asrwt>0</asrwt>
<pdfrwt beam="2">  1       21 0.63492637E-01 0.21950259E+02</pdfrwt>
<pdfrwt beam="1">  1        2 0.61402649E-01 0.21950259E+02</pdfrwt>
<totfact> 0.26477450E+03</totfact>
</mgrwt>
</event>
<event>
 4    1  0.2177230E+006  0.2243635E+02  0.7546771E-02  0.1700813E+00
          1   -1    0    0  503    0 -0.00000000000E+00  0.00000000000E+00  0.88444110304E+03  0.88444110304E+03  0.00000000000E+00 0.  1.
         21   -1    0    0  501  502  0.00000000000E+00 -0.00000000000E+00 -0.55408648034E+01  0.55408648034E+01  0.00000000000E+00 0.  1.
         21    1    1    2  503  502 -0.22351847761E+02  0.19453905332E+01  0.17933166705E+02  0.28722606266E+02  0.00000000000E+00 0.  1.
          1    1    1    2  501    0  0.22351847761E+02 -0.19453905332E+01  0.86096707153E+03  0.86125936158E+03  0.00000000000E+00 0.  1.
<mgrwt>
<rscale>  2 0.22436346E+02</rscale>
<asrwt>0</asrwt>
<pdfrwt beam="2">  1       21 0.85244144E-03 0.22436346E+02</pdfrwt>
<pdfrwt beam="1">  1        1 0.13606775E+00 0.22436346E+02</pdfrwt>
<totfact> 0.85315323E+05</totfact>
</mgrwt>
</event>
<event>
 4    1  0.2177230E+006  0.2658708E+02  0.7546771E-02  0.1639200E+00
          2   -1    0    0  502    0 -0.00000000000E+00  0.00000000000E+00  0.16767596933E+03  0.16767596933E+03  0.00000000000E+00 0. -1.
         21   -1    0    0  503  502  0.00000000000E+00 -0.00000000000E+00 -0.66103216977E+01  0.66103216977E+01  0.00000000000E+00 0.  1.
         21    1    1    2  503  501  0.33902852463E+01 -0.26370036485E+02  0.28083523145E+02  0.38672433729E+02  0.00000000000E+00 0.  1.
          2    1    1    2  501    0 -0.33902852463E+01  0.26370036485E+02  0.13298212449E+03  0.13561385730E+03  0.00000000000E+00 0. -1.
<mgrwt>
<rscale>  2 0.26587081E+02</rscale>
<asrwt>0</asrwt>
<pdfrwt beam="2">  1       21 0.10169727E-02 0.26587081E+02</pdfrwt>
<pdfrwt beam="1">  1        2 0.25796300E-01 0.26587081E+02</pdfrwt>
<totfact> 0.65310262E+06</totfact>
</mgrwt>
</event>
<event>
 4    1  0.2177230E+006  0.2143932E+02  0.7546771E-02  0.1718133E+00
         21   -1    0    0  503  502  0.00000000000E+00  0.00000000000E+00  0.45794391281E+01  0.45794391281E+01  0.00000000000E+00 0.  1.
          1   -1    0    0  502    0 -0.00000000000E+00 -0.00000000000E+00 -0.33652420759E+03  0.33652420759E+03  0.00000000000E+00 0. -1.
         21    1    1    2  503  501  0.20545505113E+02  0.61258962050E+01 -0.23101137381E+02  0.31516772248E+02  0.00000000000E+00 0.  1.
          1    1    1    2  501    0 -0.20545505113E+02 -0.61258962050E+01 -0.30884363108E+03  0.30958687447E+03  0.00000000000E+00 0. -1.
<mgrwt>
<rscale>  2 0.21439319E+02</rscale>
<asrwt>0</asrwt>
<pdfrwt beam="1">  1       21 0.70452910E-03 0.21439319E+02</pdfrwt>
<pdfrwt beam="2">  1        1 0.51772954E-01 0.21439319E+02</pdfrwt>
<totfact> 0.37470229E+06</totfact>
</mgrwt>
</event>
<event>
 4    1  0.2177230E+006  0.3566133E+02  0.7546771E-02  0.1542805E+00
         21   -1    0    0  501  502  0.00000000000E+00  0.00000000000E+00  0.12790011776E+03  0.12790011776E+03  0.00000000000E+00 0.  1.
         -4   -1    0    0    0  501 -0.00000000000E+00 -0.00000000000E+00 -0.10928003897E+03  0.10928003897E+03  0.00000000000E+00 0. -1.
         21    1    1    2  503  502  0.16716767127E+02  0.31500481323E+02  0.12237634526E+03  0.12746646816E+03  0.00000000000E+00 0.  1.
         -4    1    1    2    0  503 -0.16716767127E+02 -0.31500481323E+02 -0.10375626647E+03  0.10971368856E+03  0.00000000000E+00 0. -1.
<mgrwt>
<rscale>  2 0.35661332E+02</rscale>
<asrwt>0</asrwt>
<pdfrwt beam="1">  1       21 0.19676941E-01 0.35661332E+02</pdfrwt>
<pdfrwt beam="2">  1       -4 0.16812314E-01 0.35661332E+02</pdfrwt>
<totfact> 0.24382703E+04</totfact>
</mgrwt>
</event>
<event>
 4    1  0.2177230E+006  0.2413404E+02  0.7546771E-02  0.1673761E+00
          1   -1    0    0  502    0 -0.00000000000E+00  0.00000000000E+00  0.24439153050E+03  0.24439153050E+03  0.00000000000E+00 0. -1.
         21   -1    0    0  503  502  0.00000000000E+00 -0.00000000000E+00 -0.44076907099E+01  0.44076907099E+01  0.00000000000E+00 0. -1.
         21    1    1    2  503  501  0.24053439417E+02 -0.19707502043E+01  0.35684946420E+02  0.43079777218E+02  0.00000000000E+00 0. -1.
          1    1    1    2  501    0 -0.24053439417E+02  0.19707502043E+01  0.20429889337E+03  0.20571944399E+03  0.00000000000E+00 0. -1.
<mgrwt>
<rscale>  2 0.24134038E+02</rscale>
<asrwt>0</asrwt>
<pdfrwt beam="2">  1       21 0.67810645E-03 0.24134038E+02</pdfrwt>
<pdfrwt beam="1">  1        1 0.37598686E-01 0.24134038E+02</pdfrwt>
<totfact> 0.59133160E+06</totfact>
</mgrwt>
</event>
<event>
 4    1  0.2177230E+006  0.2337440E+02  0.7546771E-02  0.1685512E+00
         21   -1    0    0  501  502  0.00000000000E+00  0.00000000000E+00  0.18366832456E+01  0.18366832456E+01  0.00000000000E+00 0. -1.
          1   -1    0    0  503    0 -0.00000000000E+00 -0.00000000000E+00 -0.56091080138E+03  0.56091080138E+03  0.00000000000E+00 0.  1.
         21    1    1    2  503  502  0.88121859675E+01  0.21649663878E+02 -0.86706345295E+02  0.89801742087E+02  0.00000000000E+00 0. -1.
          1    1    1    2  501    0 -0.88121859675E+01 -0.21649663878E+02 -0.47236777284E+03  0.47294574254E+03  0.00000000000E+00 0.  1.
<mgrwt>
<rscale>  2 0.23374400E+02</rscale>
<asrwt>0</asrwt>
<pdfrwt beam="1">  1       21 0.28256632E-03 0.23374400E+02</pdfrwt>
<pdfrwt beam="2">  1        1 0.86294072E-01 0.23374400E+02</pdfrwt>
<totfact> 0.80150267E+06</totfact>
</mgrwt>
</event>
<event>
 4    1  0.2177230E+006  0.2021213E+02  0.7546771E-02  0.1741142E+00
         21   -1    0    0  501  502  0.00000000000E+00  0.00000000000E+00  0.46545351120E+02  0.46545351120E+02  0.00000000000E+00 0.  1.
          1   -1    0    0  503    0 -0.00000000000E+00 -0.00000000000E+00 -0.12406610436E+02  0.12406610436E+02  0.00000000000E+00 0.  1.
         21    1    1    2  503  502 -0.18372625174E+02 -0.84247856686E+01  0.33012345031E+02  0.38708465402E+02  0.00000000000E+00 0.  1.
          1    1    1    2  501    0  0.18372625174E+02  0.84247856686E+01  0.11263956538E+01  0.20243496154E+02  0.00000000000E+00 0.  1.
<mgrwt>
<rscale>  2 0.20212134E+02</rscale>
<asrwt>0</asrwt>
<pdfrwt beam="1">  1       21 0.71608232E-02 0.20212134E+02</pdfrwt>
<pdfrwt beam="2">  1        1 0.19087093E-02 0.20212134E+02</pdfrwt>
<totfact> 0.60261482E+06</totfact>
</mgrwt>
</event>
<event>
 4    1  0.2177230E+006  0.2004769E+02  0.7546771E-02  0.1744381E+00
         21   -1    0    0  501  502  0.00000000000E+00  0.00000000000E+00  0.11740719353E+03  0.11740719353E+03  0.00000000000E+00 0. -1.
         -4   -1    0    0    0  501 -0.00000000000E+00 -0.00000000000E+00 -0.15320044919E+02  0.15320044919E+02  0.00000000000E+00 0. -1.
         21    1    1    2  503  502  0.78706157305E+01  0.18438089738E+02  0.10952469947E+03  0.11134437363E+03  0.00000000000E+00 0. -1.
         -4    1    1    2    0  503 -0.78706157305E+01 -0.18438089738E+02 -0.74375508564E+01  0.21382864820E+02  0.00000000000E+00 0. -1.
<mgrwt>
<rscale>  2 0.20047687E+02</rscale>
<asrwt>0</asrwt>
<pdfrwt beam="1">  1       21 0.18062645E-01 0.20047687E+02</pdfrwt>
<pdfrwt beam="2">  1       -4 0.23569301E-02 0.20047687E+02</pdfrwt>
<totfact> 0.52156294E+05</totfact>
</mgrwt>
</event>
<event>
 4    1  0.2177230E+006  0.3589121E+02  0.7546771E-02  0.1540826E+00
          2   -1    0    0  503    0 -0.00000000000E+00  0.00000000000E+00  0.18920545832E+04  0.18920545832E+04  0.00000000000E+00 0.  1.
         21   -1    0    0  501  502  0.00000000000E+00 -0.00000000000E+00 -0.19979278511E+01  0.19979278511E+01  0.00000000000E+00 0. -1.
         21    1    1    2  503  502  0.32110246767E+02 -0.16034691951E+02  0.17611017481E+03  0.17973027837E+03  0.00000000000E+00 0. -1.
          2    1    1    2  501    0 -0.32110246767E+02  0.16034691951E+02  0.17139464806E+04  0.17143222327E+04  0.00000000000E+00 0.  1.
<mgrwt>
<rscale>  2 0.35891215E+02</rscale>
<asrwt>0</asrwt>
<pdfrwt beam="2">  1       21 0.30737503E-03 0.35891215E+02</pdfrwt>
<pdfrwt beam="1">  1        2 0.29108389E+00 0.35891215E+02</pdfrwt>
<totfact> 0.22802507E+06</totfact>
</mgrwt>
</event>
<event>
 4    1  0.2177230E+006  0.2483608E+02  0.7546771E-02  0.1663368E+00
         21   -1    0    0  503  502  0.00000000000E+00  0.00000000000E+00  0.48320415904E+00  0.48320415904E+00  0.00000000000E+00 0. -1.
         -2   -1    0    0    0  501 -0.00000000000E+00 -0.00000000000E+00 -0.13060623119E+04  0.13060623119E+04  0.00000000000E+00 0. -1.
         21    1    1    2  503  501  0.11219363093E+02 -0.22157545562E+02 -0.55457745271E+03  0.55513330110E+03  0.00000000000E+00 0. -1.
         -2    1    1    2    0  502 -0.11219363093E+02  0.22157545562E+02 -0.75100165502E+03  0.75141221495E+03  0.00000000000E+00 0. -1.
<mgrwt>
<rscale>  2 0.24836081E+02</rscale>
<asrwt>0</asrwt>
<pdfrwt beam="1">  1       21 0.74339228E-04 0.24836081E+02</pdfrwt>
<pdfrwt beam="2">  1       -2 0.20093232E+00 0.24836081E+02</pdfrwt>
<totfact> 0.16629054E+06</totfact>
</mgrwt>
</event>
<event>
 4    1  0.2177230E+006  0.2957038E+02  0.7546771E-02  0.1602887E+00
         -4   -1    0    0    0  501 -0.00000000000E+00  0.00000000000E+00  0.47810860939E+03  0.47810860939E+03  0.00000000000E+00 0.  1.
         21   -1    0    0  501  502  0.00000000000E+00 -0.00000000000E+00 -0.17541333316E+02  0.17541333316E+02  0.00000000000E+00 0. -1.
         21    1    1    2  503  502  0.21237516651E+02 -0.20576090132E+02 -0.42664710695E+01  0.29876585715E+02  0.00000000000E+00 0. -1.
         -4    1    1    2    0  503 -0.21237516651E+02  0.20576090132E+02  0.46483374714E+03  0.46577335699E+03  0.00000000000E+00 0.  1.
<mgrwt>
<rscale>  2 0.29570384E+02</rscale>
<asrwt>0</asrwt>
<pdfrwt beam="2">  1       21 0.26986670E-02 0.29570384E+02</pdfrwt>
<pdfrwt beam="1">  1       -4 0.73555161E-01 0.29570384E+02</pdfrwt>
<totfact> 0.38957214E+04</totfact>
</mgrwt>
</event>
<event>
 4    1  0.2177230E+006  0.2596527E+02  0.7546771E-02  0.1647512E+00
         21   -1    0    0  503  502  0.00000000000E+00  0.00000000000E+00  0.91543711839E+03  0.91543711839E+03  0.00000000000E+00 0.  1.
         -4   -1    0    0    0  501 -0.00000000000E+00 -0.00000000000E+00 -0.33351167470E+01  0.33351167470E+01  0.00000000000E+00 0. -1.
         21    1    1    2  503  501  0.24806261923E+02  0.76710352005E+01  0.86155548015E+03  0.86194665774E+03  0.00000000000E+00 0.  1.
         -4    1    1    2    0  502 -0.24806261923E+02 -0.76710352005E+01  0.50546521500E+02  0.56825577405E+02  0.00000000000E+00 0. -1.
<mgrwt>
<rscale>  2 0.25965273E+02</rscale>
<asrwt>0</asrwt>
<pdfrwt beam="1">  1       21 0.14083628E+00 0.25965273E+02</pdfrwt>
<pdfrwt beam="2">  1       -4 0.51309561E-03 0.25965273E+02</pdfrwt>
<totfact> 0.88915824E+04</totfact>
</mgrwt>
</event>
<event>
 4    1  0.2177230E+006  0.2086000E+02  0.7546771E-02  0.1728748E+00
         -4   -1    0    0    0  501 -0.00000000000E+00  0.00000000000E+00  0.40817338261E+02  0.40817338261E+02  0.00000000000E+00 0.  1.
         21   -1    0    0  503  502  0.00000000000E+00 -0.00000000000E+00 -0.45303300540E+02  0.45303300540E+02  0.00000000000E+00 0.  1.
         21    1    1    2  503  501 -0.17293642755E+01  0.20788192145E+02 -0.39897563858E+02  0.45021719595E+02  0.00000000000E+00 0.  1.
         -4    1    1    2    0  502  0.17293642755E+01 -0.20788192145E+02  0.35411601579E+02  0.41098919206E+02  0.00000000000E+00 0.  1.
<mgrwt>
<rscale>  2 0.20860001E+02</rscale>
<asrwt>0</asrwt>
<pdfrwt beam="2">  1       21 0.69697385E-02 0.20860001E+02</pdfrwt>
<pdfrwt beam="1">  1       -4 0.62795905E-02 0.20860001E+02</pdfrwt>
<totfact> 0.58786289E+05</totfact>
</mgrwt>
</event>
<event>
 4    1  0.2177230E+006  0.2390463E+02  0.7546771E-02  0.1677253E+00
         -1   -1    0    0    0  501 -0.00000000000E+00  0.00000000000E+00  0.10484589887E+02  0.10484589887E+02  0.00000000000E+00 0.  1.
         21   -1    0    0  503  502  0.00000000000E+00 -0.00000000000E+00 -0.14201175231E+03  0.14201175231E+03  0.00000000000E+00 0.  1.
         21    1    1    2  503  501 -0.22649637972E+02  0.76436248938E+01 -0.12561790368E+03  0.12787215814E+03  0.00000000000E+00 0.  1.
         -1    1    1    2    0  502  0.22649637972E+02 -0.76436248938E+01 -0.59092587440E+01  0.24624184061E+02  0.00000000000E+00 0.  1.
<mgrwt>
<rscale>  2 0.23904625E+02</rscale>
<asrwt>0</asrwt>
<pdfrwt beam="2">  1       21 0.21847960E-01 0.23904625E+02</pdfrwt>
<pdfrwt beam="1">  1       -1 0.16130139E-02 0.23904625E+02</pdfrwt>
<totfact> 0.11527933E+06</totfact>
</mgrwt>
</event>
<event>
 4    1  0.2177230E+006  0.2374100E+02  0.7546771E-02  0.1679773E+00
          2   -1    0    0  503    0 -0.00000000000E+00  0.00000000000E+00  0.10456457136E+02  0.10456457136E+02  0.00000000000E+00 0. -1.
         21   -1    0    0  501  502  0.00000000000E+00 -0.00000000000E+00 -0.28531584102E+03  0.28531584102E+03  0.00000000000E+00 0. -1.
         21    1    1    2  503  502  0.18268697919E+02 -0.15162119519E+02 -0.27061558114E+03  0.27165497961E+03  0.00000000000E+00 0. -1.
          2    1    1    2  501    0 -0.18268697919E+02  0.15162119519E+02 -0.42438027425E+01  0.24117318543E+02  0.00000000000E+00 0. -1.
<mgrwt>
<rscale>  2 0.23741002E+02</rscale>
<asrwt>0</asrwt>
<pdfrwt beam="2">  1       21 0.43894740E-01 0.23741002E+02</pdfrwt>
<pdfrwt beam="1">  1        2 0.16086859E-02 0.23741002E+02</pdfrwt>
<totfact> 0.34736699E+05</totfact>
</mgrwt>
</event>
<event>
 4    1  0.2177230E+006  0.3122246E+02  0.7546771E-02  0.1584956E+00
          2   -1    0    0  503    0 -0.00000000000E+00  0.00000000000E+00  0.77879013537E+03  0.77879013537E+03  0.00000000000E+00 0. -1.
         21   -1    0    0  501  502  0.00000000000E+00 -0.00000000000E+00 -0.18685067569E+01  0.18685067569E+01  0.00000000000E+00 0. -1.
         21    1    1    2  503  502 -0.29488590776E+02  0.10259867271E+02  0.16420447620E+03  0.16714649822E+03  0.00000000000E+00 0. -1.
          2    1    1    2  501    0  0.29488590776E+02 -0.10259867271E+02  0.61271715241E+03  0.61351214391E+03  0.00000000000E+00 0. -1.
<mgrwt>
<rscale>  2 0.31222458E+02</rscale>
<asrwt>0</asrwt>
<pdfrwt beam="2">  1       21 0.28746320E-03 0.31222458E+02</pdfrwt>
<pdfrwt beam="1">  1        2 0.11981361E+00 0.31222458E+02</pdfrwt>
<totfact> 0.92088244E+06</totfact>
</mgrwt>
</event>
<event>
 4    1  0.2177230E+006  0.5294337E+02  0.7546771E-02  0.1430083E+00
         -1   -1    0    0    0  501 -0.00000000000E+00  0.00000000000E+00  0.15772663860E+02  0.15772663860E+02  0.00000000000E+00 0. -1.
         21   -1    0    0  503  502  0.00000000000E+00 -0.00000000000E+00 -0.19811888816E+03  0.19811888816E+03  0.00000000000E+00 0. -1.
         21    1    1    2  503  501  0.16014703266E+02 -0.50463155378E+02 -0.12549592930E+03  0.13620656754E+03  0.00000000000E+00 0. -1.
         -1    1    1    2    0  502 -0.16014703266E+02  0.50463155378E+02 -0.56850295004E+02  0.77684984478E+02  0.00000000000E+00 0. -1.
<mgrwt>
<rscale>  2 0.52943373E+02</rscale>
<asrwt>0</asrwt>
<pdfrwt beam="2">  1       21 0.30479829E-01 0.52943373E+02</pdfrwt>
<pdfrwt beam="1">  1       -1 0.24265637E-02 0.52943373E+02</pdfrwt>
<totfact> 0.41062536E+05</totfact>
</mgrwt>
</event>
<event>
 4    1  0.2177230E+006  0.2766127E+02  0.7546771E-02  0.1625479E+00
         21   -1    0    0  501  502  0.00000000000E+00  0.00000000000E+00  0.17007029049E+02  0.17007029049E+02  0.00000000000E+00 0.  1.
         -2   -1    0    0    0  501 -0.00000000000E+00 -0.00000000000E+00 -0.21654685427E+03  0.21654685427E+03  0.00000000000E+00 0.  1.
         21    1    1    2  503  502 -0.23041685313E+02 -0.15304464939E+02  0.41706872731E+01  0.27973926100E+02  0.00000000000E+00 0.  1.
         -2    1    1    2    0  503  0.23041685313E+02  0.15304464939E+02 -0.20371051249E+03  0.20557995722E+03  0.00000000000E+00 0.  1.
<mgrwt>
<rscale>  2 0.27661271E+02</rscale>
<asrwt>0</asrwt>
<pdfrwt beam="1">  1       21 0.26164658E-02 0.27661271E+02</pdfrwt>
<pdfrwt beam="2">  1       -2 0.33314903E-01 0.27661271E+02</pdfrwt>
<totfact> 0.41878017E+05</totfact>
</mgrwt>
</event>
<event>
 4    1  0.2177230E+006  0.2285896E+02  0.7546771E-02  0.1693807E+00
         21   -1    0    0  501  502  0.00000000000E+00  0.00000000000E+00  0.13011552816E+02  0.13011552816E+02  0.00000000000E+00 0. -1.
          1   -1    0    0  503    0 -0.00000000000E+00 -0.00000000000E+00 -0.72476018382E+02  0.72476018382E+02  0.00000000000E+00 0. -1.
         21    1    1    2  503  502  0.21499780197E+02 -0.77647461504E+01 -0.11897986957E+01  0.22889898476E+02  0.00000000000E+00 0. -1.
          1    1    1    2  501    0 -0.21499780197E+02  0.77647461504E+01 -0.58274666870E+02  0.62597672721E+02  0.00000000000E+00 0. -1.
<mgrwt>
<rscale>  2 0.22858955E+02</rscale>
<asrwt>0</asrwt>
<pdfrwt beam="1">  1       21 0.20017774E-02 0.22858955E+02</pdfrwt>
<pdfrwt beam="2">  1        1 0.11150157E-01 0.22858955E+02</pdfrwt>
<totfact> 0.48388866E+06</totfact>
</mgrwt>
</event>
<event>
 4    1  0.2177230E+006  0.3545164E+02  0.7546771E-02  0.1544626E+00
         21   -1    0    0  501  502  0.00000000000E+00  0.00000000000E+00  0.13537786484E+03  0.13537786484E+03  0.00000000000E+00 0.  1.
          2   -1    0    0  503    0 -0.00000000000E+00 -0.00000000000E+00 -0.18553591226E+04  0.18553591226E+04  0.00000000000E+00 0.  1.
         21    1    1    2  503  502  0.17155460025E+02  0.31024325113E+02  0.13288444659E+03  0.13753215880E+03  0.00000000000E+00 0.  1.
          2    1    1    2  501    0 -0.17155460025E+02 -0.31024325113E+02 -0.18528657044E+04  0.18532048287E+04  0.00000000000E+00 0.  1.
<mgrwt>
<rscale>  2 0.35451637E+02</rscale>
<asrwt>0</asrwt>
<pdfrwt beam="1">  1       21 0.20827365E-01 0.35451637E+02</pdfrwt>
<pdfrwt beam="2">  1        2 0.28543985E+00 0.35451637E+02</pdfrwt>
<totfact> 0.29167718E+03</totfact>
</mgrwt>
</event>
<event>
 4    1  0.2177230E+006  0.2136764E+02  0.7546771E-02  0.1719423E+00
         21   -1    0    0  501  502  0.00000000000E+00  0.00000000000E+00  0.60126741231E+01  0.60126741231E+01  0.00000000000E+00 0. -1.
          1   -1    0    0  503    0 -0.00000000000E+00 -0.00000000000E+00 -0.72478736195E+03  0.72478736195E+03  0.00000000000E+00 0.  1.
         21    1    1    2  503  502  0.14996460779E+02 -0.15221117107E+02 -0.13658200546E+02  0.25359863644E+02  0.00000000000E+00 0. -1.
          1    1    1    2  501    0 -0.14996460779E+02  0.15221117107E+02 -0.70511648728E+03  0.70544017242E+03  0.00000000000E+00 0.  1.
<mgrwt>
<rscale>  2 0.21367645E+02</rscale>
<asrwt>0</asrwt>
<pdfrwt beam="1">  1       21 0.92502764E-03 0.21367645E+02</pdfrwt>
<pdfrwt beam="2">  1        1 0.11150565E+00 0.21367645E+02</pdfrwt>
<totfact> 0.98560621E+05</totfact>
</mgrwt>
</event>
<event>
 4    1  0.2177230E+006  0.2012251E+02  0.7546771E-02  0.1742903E+00
         21   -1    0    0  503  502  0.00000000000E+00  0.00000000000E+00  0.82929959356E+03  0.82929959356E+03  0.00000000000E+00 0.  1.
         -2   -1    0    0    0  501 -0.00000000000E+00 -0.00000000000E+00 -0.11959571336E+02  0.11959571336E+02  0.00000000000E+00 0.  1.
         21    1    1    2  503  501  0.16474703651E+01 -0.20054958729E+02  0.82062379900E+03  0.82087047396E+03  0.00000000000E+00 0.  1.
         -2    1    1    2    0  502 -0.16474703651E+01  0.20054958729E+02 -0.32837767777E+01  0.20388690938E+02  0.00000000000E+00 0.  1.
<mgrwt>
<rscale>  2 0.20122513E+02</rscale>
<asrwt>0</asrwt>
<pdfrwt beam="1">  1       21 0.12758451E+00 0.20122513E+02</pdfrwt>
<pdfrwt beam="2">  1       -2 0.18399347E-02 0.20122513E+02</pdfrwt>
<totfact> 0.28375038E+04</totfact>
</mgrwt>
</event>
<event>
 4    1  0.2177230E+006  0.3122017E+02  0.7546771E-02  0.1584980E+00
         21   -1    0    0  503  502  0.00000000000E+00  0.00000000000E+00  0.97552330825E+03  0.97552330825E+03  0.00000000000E+00 0.  1.
         -4   -1    0    0    0  501 -0.00000000000E+00 -0.00000000000E+00 -0.10631411210E+01  0.10631411210E+01  0.00000000000E+00 0.  1.
         21    1    1    2  503  501  0.29285004986E+02  0.10820694755E+02  0.60702220807E+03  0.60782453064E+03  0.00000000000E+00 0.  1.
         -4    1    1    2    0  502 -0.29285004986E+02 -0.10820694755E+02  0.36743795906E+03  0.36876191874E+03  0.00000000000E+00 0.  1.
<mgrwt>
<rscale>  2 0.31220169E+02</rscale>
<asrwt>0</asrwt>
<pdfrwt beam="1">  1       21 0.15007979E+00 0.31220169E+02</pdfrwt>
<pdfrwt beam="2">  1       -4 0.16356095E-03 0.31220169E+02</pdfrwt>
<totfact> 0.40058013E+05</totfact>
</mgrwt>
</event>
<event>
 4    1  0.2177230E+006  0.3147221E+02  0.7546771E-02  0.1582363E+00
         -2   -1    0    0    0  501 -0.00000000000E+00  0.00000000000E+00  0.49499143728E+03  0.49499143728E+03  0.00000000000E+00 0.  1.
         21   -1    0    0  503  502  0.00000000000E+00 -0.00000000000E+00 -0.22940810842E+01  0.22940810842E+01  0.00000000000E+00 0. -1.
         21    1    1    2  503  501  0.25197092385E+02 -0.18857537429E+02  0.15748343713E+03  0.16059742573E+03  0.00000000000E+00 0. -1.
         -2    1    1    2    0  502 -0.25197092385E+02  0.18857537429E+02  0.33521391907E+03  0.33668809263E+03  0.00000000000E+00 0.  1.
<mgrwt>
<rscale>  2 0.31472213E+02</rscale>
<asrwt>0</asrwt>
<pdfrwt beam="2">  1       21 0.35293595E-03 0.31472213E+02</pdfrwt>
<pdfrwt beam="1">  1       -2 0.76152444E-01 0.31472213E+02</pdfrwt>
<totfact> 0.18306688E+06</totfact>
</mgrwt>
</event>
<event>
 4    1  0.2177230E+006  0.2960590E+02  0.7546771E-02  0.1602486E+00
          2   -1    0    0  503    0 -0.00000000000E+00  0.00000000000E+00  0.14751397697E+04  0.14751397697E+04  0.00000000000E+00 0.  1.
         21   -1    0    0  501  502  0.00000000000E+00 -0.00000000000E+00 -0.17265576290E+01  0.17265576290E+01  0.00000000000E+00 0.  1.
         21    1    1    2  503  502 -0.26734351687E+02 -0.12719429158E+02  0.13868774924E+03  0.14181255667E+03  0.00000000000E+00 0.  1.
          2    1    1    2  501    0  0.26734351687E+02  0.12719429158E+02  0.13347254629E+04  0.13350537707E+04  0.00000000000E+00 0.  1.
<mgrwt>
<rscale>  2 0.29605902E+02</rscale>
<asrwt>0</asrwt>
<pdfrwt beam="2">  1       21 0.26562543E-03 0.29605902E+02</pdfrwt>
<pdfrwt beam="1">  1        2 0.22694357E+00 0.29605902E+02</pdfrwt>
<totfact> 0.43429566E+06</totfact>
</mgrwt>
</event>
<event>
 4    1  0.2177230E+006  0.2383609E+02  0.7546771E-02  0.1678305E+00
         21   -1    0    0  501  502  0.00000000000E+00  0.00000000000E+00  0.78809603051E+02  0.78809603051E+02  0.00000000000E+00 0. -1.
          2   -1    0    0  503    0 -0.00000000000E+00 -0.00000000000E+00 -0.11235524920E+02  0.11235524920E+02  0.00000000000E+00 0. -1.
         21    1    1    2  503  502  0.84307233440E+01  0.22295335578E+02  0.60738642043E+02  0.65248308192E+02  0.00000000000E+00 0. -1.
          2    1    1    2  501    0 -0.84307233440E+01 -0.22295335578E+02  0.68354360882E+01  0.24796819779E+02  0.00000000000E+00 0. -1.
<mgrwt>
<rscale>  2 0.23836088E+02</rscale>
<asrwt>0</asrwt>
<pdfrwt beam="1">  1       21 0.12124554E-01 0.23836088E+02</pdfrwt>
<pdfrwt beam="2">  1        2 0.17285423E-02 0.23836088E+02</pdfrwt>
<totfact> 0.31254364E+06</totfact>
</mgrwt>
</event>
<event>
 4    1  0.2177230E+006  0.2349557E+02  0.7546771E-02  0.1683601E+00
         21   -1    0    0  503  502  0.00000000000E+00  0.00000000000E+00  0.67177721704E+02  0.67177721704E+02  0.00000000000E+00 0. -1.
         -2   -1    0    0    0  501 -0.00000000000E+00 -0.00000000000E+00 -0.50782117036E+02  0.50782117036E+02  0.00000000000E+00 0.  1.
         21    1    1    2  503  501  0.22143474193E+02  0.78554606423E+01  0.62195155432E+02  0.66485179329E+02  0.00000000000E+00 0. -1.
         -2    1    1    2    0  502 -0.22143474193E+02 -0.78554606423E+01 -0.45799550765E+02  0.51474659411E+02  0.00000000000E+00 0.  1.
<mgrwt>
<rscale>  2 0.23495568E+02</rscale>
<asrwt>0</asrwt>
<pdfrwt beam="1">  1       21 0.10335034E-01 0.23495568E+02</pdfrwt>
<pdfrwt beam="2">  1       -2 0.78126334E-02 0.23495568E+02</pdfrwt>
<totfact> 0.44572657E+05</totfact>
</mgrwt>
</event>
<event>
 4    1  0.2177230E+006  0.2085718E+02  0.7546771E-02  0.1728800E+00
          2   -1    0    0  503    0 -0.00000000000E+00  0.00000000000E+00  0.14693245800E+03  0.14693245800E+03  0.00000000000E+00 0.  1.
         21   -1    0    0  501  502  0.00000000000E+00 -0.00000000000E+00 -0.58950333241E+01  0.58950333241E+01  0.00000000000E+00 0.  1.
         21    1    1    2  503  502 -0.36566851936E+01 -0.20534134205E+02  0.16606948662E+02  0.26661071959E+02  0.00000000000E+00 0.  1.
          2    1    1    2  501    0  0.36566851936E+01  0.20534134205E+02  0.12443047601E+03  0.12616641936E+03  0.00000000000E+00 0.  1.
<mgrwt>
<rscale>  2 0.20857181E+02</rscale>
<asrwt>0</asrwt>
<pdfrwt beam="2">  1       21 0.90692832E-03 0.20857181E+02</pdfrwt>
<pdfrwt beam="1">  1        2 0.22604991E-01 0.20857181E+02</pdfrwt>
<totfact> 0.83229839E+06</totfact>
</mgrwt>
</event>
<event>
 4    1  0.2177230E+006  0.2195229E+02  0.7546771E-02  0.1709078E+00
         21   -1    0    0  503  502  0.00000000000E+00  0.00000000000E+00  0.37527054724E+02  0.37527054724E+02  0.00000000000E+00 0. -1.
          2   -1    0    0  502    0 -0.00000000000E+00 -0.00000000000E+00 -0.15118405369E+02  0.15118405369E+02  0.00000000000E+00 0. -1.
         21    1    1    2  503  501  0.12070743835E+02  0.18335764164E+02  0.21419642279E+02  0.30670901185E+02  0.00000000000E+00 0. -1.
          2    1    1    2  501    0 -0.12070743835E+02 -0.18335764164E+02  0.98900707731E+00  0.21974558908E+02  0.00000000000E+00 0. -1.
<mgrwt>
<rscale>  2 0.21952292E+02</rscale>
<asrwt>0</asrwt>
<pdfrwt beam="1">  1       21 0.57733930E-02 0.21952292E+02</pdfrwt>
<pdfrwt beam="2">  1        2 0.23259085E-02 0.21952292E+02</pdfrwt>
<totfact> 0.70336320E+06</totfact>
</mgrwt>
</event>
<event>
 4    1  0.2177230E+006  0.2161357E+02  0.7546771E-02  0.1715022E+00
          2   -1    0    0  503    0 -0.00000000000E+00  0.00000000000E+00  0.69334075386E+03  0.69334075386E+03  0.00000000000E+00 0.  1.
         21   -1    0    0  501  502  0.00000000000E+00 -0.00000000000E+00 -0.67392309283E+00  0.67392309283E+00  0.00000000000E+00 0.  1.
         21    1    1    2  503  502 -0.15823082123E+02 -0.14723337010E+02  0.34096665378E+03  0.34165099966E+03  0.00000000000E+00 0.  1.
          2    1    1    2  501    0  0.15823082123E+02  0.14723337010E+02  0.35170017699E+03  0.35236367729E+03  0.00000000000E+00 0.  1.
<mgrwt>
<rscale>  2 0.21613574E+02</rscale>
<asrwt>0</asrwt>
<pdfrwt beam="2">  1       21 0.10368103E-03 0.21613574E+02</pdfrwt>
<pdfrwt beam="1">  1        2 0.10666724E+00 0.21613574E+02</pdfrwt>
<totfact> 0.41491249E+07</totfact>
</mgrwt>
</event>
<event>
 4    1  0.2177230E+006  0.2067942E+02  0.7546771E-02  0.1732145E+00
         21   -1    0    0  501  502  0.00000000000E+00  0.00000000000E+00  0.91932267050E+02  0.91932267050E+02  0.00000000000E+00 0. -1.
          1   -1    0    0  503    0 -0.00000000000E+00 -0.00000000000E+00 -0.10436015601E+02  0.10436015601E+02  0.00000000000E+00 0.  1.
         21    1    1    2  503  502  0.20600010953E+02 -0.18105324148E+01  0.78854288238E+02  0.81520778041E+02  0.00000000000E+00 0. -1.
          1    1    1    2  501    0 -0.20600010953E+02  0.18105324148E+01  0.26419632105E+01  0.20847504611E+02  0.00000000000E+00 0.  1.
<mgrwt>
<rscale>  2 0.20679422E+02</rscale>
<asrwt>0</asrwt>
<pdfrwt beam="1">  1       21 0.14143425E-01 0.20679422E+02</pdfrwt>
<pdfrwt beam="2">  1        1 0.16055409E-02 0.20679422E+02</pdfrwt>
<totfact> 0.24775188E+06</totfact>
</mgrwt>
</event>
<event>
 4    1  0.2177230E+006  0.4180482E+02  0.7546771E-02  0.1495335E+00
         21   -1    0    0  501  502  0.00000000000E+00  0.00000000000E+00  0.16650190287E+01  0.16650190287E+01  0.00000000000E+00 0.  1.
          2   -1    0    0  503    0 -0.00000000000E+00 -0.00000000000E+00 -0.12300228222E+04  0.12300228222E+04  0.00000000000E+00 0.  1.
         21    1    1    2  503  502  0.26888113177E+02 -0.32010503746E+02 -0.37833122001E+03  0.38063388579E+03  0.00000000000E+00 0.  1.
          2    1    1    2  501    0 -0.26888113177E+02  0.32010503746E+02 -0.85002658319E+03  0.85105395547E+03  0.00000000000E+00 0.  1.
<mgrwt>
<rscale>  2 0.41804820E+02</rscale>
<asrwt>0</asrwt>
<pdfrwt beam="1">  1       21 0.25615606E-03 0.41804820E+02</pdfrwt>
<pdfrwt beam="2">  1        2 0.18923481E+00 0.41804820E+02</pdfrwt>
<totfact> 0.64254430E+06</totfact>
</mgrwt>
</event>
<event>
 4    1  0.2177230E+006  0.2492443E+02  0.7546771E-02  0.1662090E+00
          2   -1    0    0  502    0 -0.00000000000E+00  0.00000000000E+00  0.85552412238E+03  0.85552412238E+03  0.00000000000E+00 0. -1.
         21   -1    0    0  503  502  0.00000000000E+00 -0.00000000000E+00 -0.18481260854E+04  0.18481260854E+04  0.00000000000E+00 0.  1.
         21    1    1    2  503  501  0.21353961945E+02  0.12854399701E+02 -0.18478604905E+04  0.18480285765E+04  0.00000000000E+00 0.  1.
          2    1    1    2  501    0 -0.21353961945E+02 -0.12854399701E+02  0.85525852741E+03  0.85562163133E+03  0.00000000000E+00 0. -1.
<mgrwt>
<rscale>  2 0.24924431E+02</rscale>
<asrwt>0</asrwt>
<pdfrwt beam="2">  1       21 0.28432709E+00 0.24924431E+02</pdfrwt>
<pdfrwt beam="1">  1        2 0.13161910E+00 0.24924431E+02</pdfrwt>
<totfact> 0.32363526E+01</totfact>
</mgrwt>
</event>
<event>
 4    1  0.2177230E+006  0.2516381E+02  0.7546771E-02  0.1658660E+00
         21   -1    0    0  503  502  0.00000000000E+00  0.00000000000E+00  0.58226317181E+02  0.58226317181E+02  0.00000000000E+00 0. -1.
         -1   -1    0    0    0  501 -0.00000000000E+00 -0.00000000000E+00 -0.11598339005E+03  0.11598339005E+03  0.00000000000E+00 0. -1.
         21    1    1    2  503  501 -0.23139914892E+02 -0.98874535088E+01  0.54042157533E+02  0.59613523540E+02  0.00000000000E+00 0. -1.
         -1    1    1    2    0  502  0.23139914892E+02  0.98874535088E+01 -0.11179923040E+03  0.11459618369E+03  0.00000000000E+00 0. -1.
<mgrwt>
<rscale>  2 0.25163811E+02</rscale>
<asrwt>0</asrwt>
<pdfrwt beam="1">  1       21 0.89578949E-02 0.25163811E+02</pdfrwt>
<pdfrwt beam="2">  1       -1 0.17843598E-01 0.25163811E+02</pdfrwt>
<totfact> 0.17733426E+05</totfact>
</mgrwt>
</event>
<event>
 4    1  0.2177230E+006  0.2264949E+02  0.7546771E-02  0.1697256E+00
         21   -1    0    0  501  502  0.00000000000E+00  0.00000000000E+00  0.60853421835E+01  0.60853421835E+01  0.00000000000E+00 0.  1.
          2   -1    0    0  503    0 -0.00000000000E+00 -0.00000000000E+00 -0.12120436956E+03  0.12120436956E+03  0.00000000000E+00 0.  1.
         21    1    1    2  503  502  0.16380535108E+02 -0.15642166618E+02 -0.22440826932E+02  0.31884008850E+02  0.00000000000E+00 0.  1.
          2    1    1    2  501    0 -0.16380535108E+02  0.15642166618E+02 -0.92678200440E+02  0.95405702889E+02  0.00000000000E+00 0.  1.
<mgrwt>
<rscale>  2 0.22649488E+02</rscale>
<asrwt>0</asrwt>
<pdfrwt beam="1">  1       21 0.93620655E-03 0.22649488E+02</pdfrwt>
<pdfrwt beam="2">  1        2 0.18646825E-01 0.22649488E+02</pdfrwt>
<totfact> 0.99571760E+06</totfact>
</mgrwt>
</event>
<event>
 4    1  0.2177230E+006  0.2237860E+02  0.7546771E-02  0.1701785E+00
          1   -1    0    0  503    0 -0.00000000000E+00  0.00000000000E+00  0.11745310053E+04  0.11745310053E+04  0.00000000000E+00 0. -1.
         21   -1    0    0  501  502  0.00000000000E+00 -0.00000000000E+00 -0.11032820028E+02  0.11032820028E+02  0.00000000000E+00 0. -1.
         21    1    1    2  503  502 -0.15460167140E+02 -0.16179776013E+02  0.53464250380E+00  0.22384989668E+02  0.00000000000E+00 0. -1.
          1    1    1    2  501    0  0.15460167140E+02  0.16179776013E+02  0.11629635427E+04  0.11631788356E+04  0.00000000000E+00 0. -1.
<mgrwt>
<rscale>  2 0.22378604E+02</rscale>
<asrwt>0</asrwt>
<pdfrwt beam="2">  1       21 0.16973579E-02 0.22378604E+02</pdfrwt>
<pdfrwt beam="1">  1        1 0.18069698E+00 0.22378604E+02</pdfrwt>
<totfact> 0.19341063E+05</totfact>
</mgrwt>
</event>
<event>
 4    1  0.2177230E+006  0.2184416E+02  0.7546771E-02  0.1710961E+00
          2   -1    0    0  503    0 -0.00000000000E+00  0.00000000000E+00  0.35682153113E+02  0.35682153113E+02  0.00000000000E+00 0.  1.
         21   -1    0    0  501  502  0.00000000000E+00 -0.00000000000E+00 -0.26238517720E+02  0.26238517720E+02  0.00000000000E+00 0.  1.
         21    1    1    2  503  502 -0.12059222887E+02  0.18213801891E+02 -0.16957937365E+02  0.27653916099E+02  0.00000000000E+00 0.  1.
          2    1    1    2  501    0  0.12059222887E+02 -0.18213801891E+02  0.26401572758E+02  0.34266754735E+02  0.00000000000E+00 0.  1.
<mgrwt>
<rscale>  2 0.21844163E+02</rscale>
<asrwt>0</asrwt>
<pdfrwt beam="2">  1       21 0.40366950E-02 0.21844163E+02</pdfrwt>
<pdfrwt beam="1">  1        2 0.54895621E-02 0.21844163E+02</pdfrwt>
<totfact> 0.42538124E+06</totfact>
</mgrwt>
</event>
<event>
 4    1  0.2177230E+006  0.3234756E+02  0.7546771E-02  0.1573501E+00
         21   -1    0    0  503  502  0.00000000000E+00  0.00000000000E+00  0.44875374633E+01  0.44875374633E+01  0.00000000000E+00 0.  1.
          2   -1    0    0  502    0 -0.00000000000E+00 -0.00000000000E+00 -0.26661074522E+03  0.26661074522E+03  0.00000000000E+00 0.  1.
         21    1    1    2  503  501 -0.28866565326E+02  0.14597469156E+02 -0.83056453752E+02  0.89133266569E+02  0.00000000000E+00 0.  1.
          2    1    1    2  501    0  0.28866565326E+02 -0.14597469156E+02 -0.17906675400E+03  0.18196501611E+03  0.00000000000E+00 0.  1.
<mgrwt>
<rscale>  2 0.32347561E+02</rscale>
<asrwt>0</asrwt>
<pdfrwt beam="1">  1       21 0.69039041E-03 0.32347561E+02</pdfrwt>
<pdfrwt beam="2">  1        2 0.41017036E-01 0.32347561E+02</pdfrwt>
<totfact> 0.76601887E+06</totfact>
</mgrwt>
</event>
<event>
 4    1  0.2177230E+006  0.3379981E+02  0.7546771E-02  0.1559524E+00
          1   -1    0    0  503    0 -0.00000000000E+00  0.00000000000E+00  0.27435010777E+03  0.27435010777E+03  0.00000000000E+00 0.  1.
         21   -1    0    0  501  502  0.00000000000E+00 -0.00000000000E+00 -0.58137379902E+01  0.58137379902E+01  0.00000000000E+00 0.  1.
         21    1    1    2  503  502  0.66336744047E+01 -0.33142447777E+02  0.59649821676E+02  0.68560401886E+02  0.00000000000E+00 0.  1.
          1    1    1    2  501    0 -0.66336744047E+01  0.33142447777E+02  0.20888654810E+03  0.21160344387E+03  0.00000000000E+00 0.  1.
<mgrwt>
<rscale>  2 0.33799815E+02</rscale>
<asrwt>0</asrwt>
<pdfrwt beam="2">  1       21 0.89442145E-03 0.33799815E+02</pdfrwt>
<pdfrwt beam="1">  1        1 0.42207699E-01 0.33799815E+02</pdfrwt>
<totfact> 0.36886235E+06</totfact>
</mgrwt>
</event>
<event>
 4    1  0.2177230E+006  0.2743173E+02  0.7546771E-02  0.1628346E+00
         -2   -1    0    0    0  501 -0.00000000000E+00  0.00000000000E+00  0.73271915946E+02  0.73271915946E+02  0.00000000000E+00 0.  1.
         21   -1    0    0  503  502  0.00000000000E+00 -0.00000000000E+00 -0.12329600512E+02  0.12329600512E+02  0.00000000000E+00 0. -1.
         21    1    1    2  503  501 -0.20095754432E+02  0.18672458454E+02  0.12977843784E+02  0.30346737555E+02  0.00000000000E+00 0. -1.
         -2    1    1    2    0  502  0.20095754432E+02 -0.18672458454E+02  0.47964471650E+02  0.55254778902E+02  0.00000000000E+00 0.  1.
<mgrwt>
<rscale>  2 0.27431734E+02</rscale>
<asrwt>0</asrwt>
<pdfrwt beam="2">  1       21 0.18968617E-02 0.27431734E+02</pdfrwt>
<pdfrwt beam="1">  1       -2 0.11272602E-01 0.27431734E+02</pdfrwt>
<totfact> 0.39876557E+06</totfact>
</mgrwt>
</event>
<event>
 4    1  0.2177230E+006  0.2149801E+02  0.7546771E-02  0.1717081E+00
         21   -1    0    0  501  502  0.00000000000E+00  0.00000000000E+00  0.55941205691E+03  0.55941205691E+03  0.00000000000E+00 0.  1.
          3   -1    0    0  503    0 -0.00000000000E+00 -0.00000000000E+00 -0.13116320372E+01  0.13116320372E+01  0.00000000000E+00 0. -1.
         21    1    1    2  503  502  0.17537071793E+02  0.12434455166E+02  0.44961699324E+03  0.45013065345E+03  0.00000000000E+00 0.  1.
          3    1    1    2  501    0 -0.17537071793E+02 -0.12434455166E+02  0.10848343164E+03  0.11059303550E+03  0.00000000000E+00 0. -1.
<mgrwt>
<rscale>  2 0.21498013E+02</rscale>
<asrwt>0</asrwt>
<pdfrwt beam="1">  1       21 0.86063203E-01 0.21498013E+02</pdfrwt>
<pdfrwt beam="2">  1        3 0.20178999E-03 0.21498013E+02</pdfrwt>
<totfact> 0.10743758E+06</totfact>
</mgrwt>
</event>
<event>
 4    1  0.2177230E+006  0.2276074E+02  0.7546771E-02  0.1695418E+00
          2   -1    0    0  502    0 -0.00000000000E+00  0.00000000000E+00  0.23333001421E+03  0.23333001421E+03  0.00000000000E+00 0.  1.
         21   -1    0    0  503  502  0.00000000000E+00 -0.00000000000E+00 -0.25056082711E+01  0.25056082711E+01  0.00000000000E+00 0.  1.
         21    1    1    2  503  501  0.10470581554E+02  0.20209355321E+02  0.75618207659E+02  0.78969389324E+02  0.00000000000E+00 0.  1.
          2    1    1    2  501    0 -0.10470581554E+02 -0.20209355321E+02  0.15520619828E+03  0.15686623316E+03  0.00000000000E+00 0.  1.
<mgrwt>
<rscale>  2 0.22760736E+02</rscale>
<asrwt>0</asrwt>
<pdfrwt beam="2">  1       21 0.38547838E-03 0.22760736E+02</pdfrwt>
<pdfrwt beam="1">  1        2 0.35896908E-01 0.22760736E+02</pdfrwt>
<totfact> 0.18921055E+07</totfact>
</mgrwt>
</event>
<event>
 4    1  0.2177230E+006  0.2395382E+02  0.7546771E-02  0.1676500E+00
          3   -1    0    0  503    0 -0.00000000000E+00  0.00000000000E+00  0.13630062476E+02  0.13630062476E+02  0.00000000000E+00 0. -1.
         21   -1    0    0  501  502  0.00000000000E+00 -0.00000000000E+00 -0.14715942912E+03  0.14715942912E+03  0.00000000000E+00 0. -1.
         21    1    1    2  503  502 -0.46054637541E+01  0.23506920019E+02 -0.13469399436E+03  0.13680737444E+03  0.00000000000E+00 0. -1.
          3    1    1    2  501    0  0.46054637541E+01 -0.23506920019E+02  0.11646277211E+01  0.23982117148E+02  0.00000000000E+00 0. -1.
<mgrwt>
<rscale>  2 0.23953822E+02</rscale>
<asrwt>0</asrwt>
<pdfrwt beam="2">  1       21 0.22639912E-01 0.23953822E+02</pdfrwt>
<pdfrwt beam="1">  1        3 0.20969327E-02 0.23953822E+02</pdfrwt>
<totfact> 0.52193152E+05</totfact>
</mgrwt>
</event>
<event>
 4    1  0.2177230E+006  0.2090535E+02  0.7546771E-02  0.1727901E+00
         21   -1    0    0  501  502  0.00000000000E+00  0.00000000000E+00  0.57035417301E+02  0.57035417301E+02  0.00000000000E+00 0.  1.
          1   -1    0    0  503    0 -0.00000000000E+00 -0.00000000000E+00 -0.12767051828E+02  0.12767051828E+02  0.00000000000E+00 0. -1.
         21    1    1    2  503  502 -0.40892877152E+01  0.20501499324E+02  0.44202762742E+02  0.48897014045E+02  0.00000000000E+00 0.  1.
          1    1    1    2  501    0  0.40892877152E+01 -0.20501499324E+02  0.65602731530E-01  0.20905455084E+02  0.00000000000E+00 0. -1.
<mgrwt>
<rscale>  2 0.20905352E+02</rscale>
<asrwt>0</asrwt>
<pdfrwt beam="1">  1       21 0.87746794E-02 0.20905352E+02</pdfrwt>
<pdfrwt beam="2">  1        1 0.19641619E-02 0.20905352E+02</pdfrwt>
<totfact> 0.42158861E+06</totfact>
</mgrwt>
</event>
<event>
 4    1  0.2177230E+006  0.4100084E+02  0.7546771E-02  0.1500973E+00
         21   -1    0    0  503  502  0.00000000000E+00  0.00000000000E+00  0.30293278238E+03  0.30293278238E+03  0.00000000000E+00 0. -1.
         -1   -1    0    0    0  501 -0.00000000000E+00 -0.00000000000E+00 -0.65817669821E+01  0.65817669821E+01  0.00000000000E+00 0. -1.
         21    1    1    2  503  501 -0.68760488811E+01  0.40420150033E+02  0.20946913842E+03  0.21344411101E+03  0.00000000000E+00 0. -1.
         -1    1    1    2    0  502  0.68760488811E+01 -0.40420150033E+02  0.86881876980E+02  0.96070438348E+02  0.00000000000E+00 0. -1.
<mgrwt>
<rscale>  2 0.41000836E+02</rscale>
<asrwt>0</asrwt>
<pdfrwt beam="1">  1       21 0.46605033E-01 0.41000836E+02</pdfrwt>
<pdfrwt beam="2">  1       -1 0.10125798E-02 0.41000836E+02</pdfrwt>
<totfact> 0.59063289E+05</totfact>
</mgrwt>
</event>
<event>
 4    1  0.2177230E+006  0.3080203E+02  0.7546771E-02  0.1589389E+00
          4   -1    0    0  502    0 -0.00000000000E+00  0.00000000000E+00  0.31105291568E+03  0.31105291568E+03  0.00000000000E+00 0. -1.
         21   -1    0    0  503  502  0.00000000000E+00 -0.00000000000E+00 -0.34373261040E+02  0.34373261040E+02  0.00000000000E+00 0.  1.
         21    1    1    2  503  501  0.24296673127E+02 -0.18932418152E+02 -0.26532275453E+02  0.40653738116E+02  0.00000000000E+00 0.  1.
          4    1    1    2  501    0 -0.24296673127E+02  0.18932418152E+02  0.30321193010E+03  0.30477243861E+03  0.00000000000E+00 0. -1.
<mgrwt>
<rscale>  2 0.30802026E+02</rscale>
<asrwt>0</asrwt>
<pdfrwt beam="2">  1       21 0.52881942E-02 0.30802026E+02</pdfrwt>
<pdfrwt beam="1">  1        4 0.47854293E-01 0.30802026E+02</pdfrwt>
<totfact> 0.32202422E+04</totfact>
</mgrwt>
</event>
<event>
 4    1  0.2177230E+006  0.2415653E+02  0.7546771E-02  0.1673421E+00
          1   -1    0    0  502    0 -0.00000000000E+00  0.00000000000E+00  0.13026414558E+03  0.13026414558E+03  0.00000000000E+00 0. -1.
         21   -1    0    0  503  502  0.00000000000E+00 -0.00000000000E+00 -0.10665326594E+02  0.10665326594E+02  0.00000000000E+00 0.  1.
         21    1    1    2  503  501 -0.23325646220E+02  0.62811033969E+01  0.61359968667E+01  0.24923653204E+02  0.00000000000E+00 0.  1.
          1    1    1    2  501    0  0.23325646220E+02 -0.62811033969E+01  0.11346282212E+03  0.11600581897E+03  0.00000000000E+00 0. -1.
<mgrwt>
<rscale>  2 0.24156532E+02</rscale>
<asrwt>0</asrwt>
<pdfrwt beam="2">  1       21 0.16408196E-02 0.24156532E+02</pdfrwt>
<pdfrwt beam="1">  1        1 0.20040637E-01 0.24156532E+02</pdfrwt>
<totfact> 0.32657240E+06</totfact>
</mgrwt>
</event>
<event>
 4    1  0.2177230E+006  0.2086473E+02  0.7546771E-02  0.1728659E+00
         21   -1    0    0  501  502  0.00000000000E+00  0.00000000000E+00  0.67961441850E+00  0.67961441850E+00  0.00000000000E+00 0. -1.
          1   -1    0    0  503    0 -0.00000000000E+00 -0.00000000000E+00 -0.15092340500E+04  0.15092340500E+04  0.00000000000E+00 0. -1.
         21    1    1    2  503  502 -0.19946929196E+02  0.61202099171E+01 -0.18151931436E+03  0.18271452717E+03  0.00000000000E+00 0. -1.
          1    1    1    2  501    0  0.19946929196E+02 -0.61202099171E+01 -0.13270351212E+04  0.13271991373E+04  0.00000000000E+00 0. -1.
<mgrwt>
<rscale>  2 0.20864730E+02</rscale>
<asrwt>0</asrwt>
<pdfrwt beam="1">  1       21 0.10455639E-03 0.20864730E+02</pdfrwt>
<pdfrwt beam="2">  1        1 0.23218913E+00 0.20864730E+02</pdfrwt>
<totfact> 0.71408131E+06</totfact>
</mgrwt>
</event>
<event>
 4    1  0.2177230E+006  0.2146122E+02  0.7546771E-02  0.1717740E+00
         -2   -1    0    0    0  501 -0.00000000000E+00  0.00000000000E+00  0.10826501330E+03  0.10826501330E+03  0.00000000000E+00 0. -1.
         21   -1    0    0  503  502  0.00000000000E+00 -0.00000000000E+00 -0.64180836268E+02  0.64180836268E+02  0.00000000000E+00 0. -1.
         21    1    1    2  503  501  0.15773928158E+02  0.14552218595E+02 -0.61274200859E+02  0.64923890568E+02  0.00000000000E+00 0. -1.
         -2    1    1    2    0  502 -0.15773928158E+02 -0.14552218595E+02  0.10535837789E+03  0.10752195900E+03  0.00000000000E+00 0. -1.
<mgrwt>
<rscale>  2 0.21461218E+02</rscale>
<asrwt>0</asrwt>
<pdfrwt beam="2">  1       21 0.98739748E-02 0.21461218E+02</pdfrwt>
<pdfrwt beam="1">  1       -2 0.16656156E-01 0.21461218E+02</pdfrwt>
<totfact> 0.15081057E+05</totfact>
</mgrwt>
</event>
<event>
 4    1  0.2177230E+006  0.2246869E+02  0.7546771E-02  0.1700270E+00
          2   -1    0    0  503    0 -0.00000000000E+00  0.00000000000E+00  0.14858467275E+04  0.14858467275E+04  0.00000000000E+00 0.  1.
         21   -1    0    0  501  502  0.00000000000E+00 -0.00000000000E+00 -0.38136177284E+00  0.38136177284E+00  0.00000000000E+00 0.  1.
         21    1    1    2  503  502  0.14903974546E+01 -0.22419201028E+02  0.49731511005E+03  0.49782241868E+03  0.00000000000E+00 0.  1.
          2    1    1    2  501    0 -0.14903974546E+01  0.22419201028E+02  0.98815025564E+03  0.98840567055E+03  0.00000000000E+00 0.  1.
<mgrwt>
<rscale>  2 0.22468686E+02</rscale>
<asrwt>0</asrwt>
<pdfrwt beam="2">  1       21 0.58672232E-04 0.22468686E+02</pdfrwt>
<pdfrwt beam="1">  1        2 0.22858717E+00 0.22468686E+02</pdfrwt>
<totfact> 0.35321860E+07</totfact>
</mgrwt>
</event>
<event>
 4    1  0.2177230E+006  0.3186840E+02  0.7546771E-02  0.1578309E+00
         21   -1    0    0  501  502  0.00000000000E+00  0.00000000000E+00  0.37335688238E+02  0.37335688238E+02  0.00000000000E+00 0.  1.
         -1   -1    0    0    0  501 -0.00000000000E+00 -0.00000000000E+00 -0.11710808214E+03  0.11710808214E+03  0.00000000000E+00 0.  1.
         21    1    1    2  503  502 -0.15264112965E+02  0.27975023876E+02  0.27775388053E+02  0.42273718632E+02  0.00000000000E+00 0.  1.
         -1    1    1    2    0  503  0.15264112965E+02 -0.27975023876E+02 -0.10754778195E+03  0.11217005174E+03  0.00000000000E+00 0.  1.
<mgrwt>
<rscale>  2 0.31868403E+02</rscale>
<asrwt>0</asrwt>
<pdfrwt beam="1">  1       21 0.57439521E-02 0.31868403E+02</pdfrwt>
<pdfrwt beam="2">  1       -1 0.18016628E-01 0.31868403E+02</pdfrwt>
<totfact> 0.37524457E+05</totfact>
</mgrwt>
</event>
<event>
 4    1  0.2177230E+006  0.2981979E+02  0.7546771E-02  0.1600089E+00
         21   -1    0    0  503  502  0.00000000000E+00  0.00000000000E+00  0.60747494231E+03  0.60747494231E+03  0.00000000000E+00 0.  1.
         -1   -1    0    0    0  501 -0.00000000000E+00 -0.00000000000E+00 -0.14959876100E+01  0.14959876100E+01  0.00000000000E+00 0. -1.
         21    1    1    2  503  501  0.34596161440E+01 -0.29618423719E+02  0.34765449508E+03  0.34893103605E+03  0.00000000000E+00 0.  1.
         -1    1    1    2    0  502 -0.34596161440E+01  0.29618423719E+02  0.25832445962E+03  0.26003989387E+03  0.00000000000E+00 0. -1.
<mgrwt>
<rscale>  2 0.29819792E+02</rscale>
<asrwt>0</asrwt>
<pdfrwt beam="1">  1       21 0.93457487E-01 0.29819792E+02</pdfrwt>
<pdfrwt beam="2">  1       -1 0.23015242E-03 0.29819792E+02</pdfrwt>
<totfact> 0.98962385E+05</totfact>
</mgrwt>
</event>
<event>
 4    1  0.2177230E+006  0.2006903E+02  0.7546771E-02  0.1743959E+00
          3   -1    0    0  502    0 -0.00000000000E+00  0.00000000000E+00  0.54442021511E+01  0.54442021511E+01  0.00000000000E+00 0.  1.
         21   -1    0    0  503  502  0.00000000000E+00 -0.00000000000E+00 -0.17759246668E+03  0.17759246668E+03  0.00000000000E+00 0. -1.
         21    1    1    2  503  501 -0.40845133025E+01  0.19648984134E+02 -0.15597787037E+03  0.15726366990E+03  0.00000000000E+00 0. -1.
          3    1    1    2  501    0  0.40845133025E+01 -0.19648984134E+02 -0.16170394156E+02  0.25772998925E+02  0.00000000000E+00 0.  1.
<mgrwt>
<rscale>  2 0.20069027E+02</rscale>
<asrwt>0</asrwt>
<pdfrwt beam="2">  1       21 0.27321916E-01 0.20069027E+02</pdfrwt>
<pdfrwt beam="1">  1        3 0.83756962E-03 0.20069027E+02</pdfrwt>
<totfact> 0.13153926E+06</totfact>
</mgrwt>
</event>
<event>
 4    1  0.2177230E+006  0.2297160E+02  0.7546771E-02  0.1691971E+00
         -2   -1    0    0    0  501 -0.00000000000E+00  0.00000000000E+00  0.26233730168E+02  0.26233730168E+02  0.00000000000E+00 0.  1.
         21   -1    0    0  503  502  0.00000000000E+00 -0.00000000000E+00 -0.33001119535E+03  0.33001119535E+03  0.00000000000E+00 0. -1.
         21    1    1    2  503  501  0.76431774036E+01 -0.21662783171E+02 -0.32449732084E+03  0.32530939976E+03  0.00000000000E+00 0. -1.
         -2    1    1    2    0  502 -0.76431774036E+01  0.21662783171E+02  0.20719855661E+02  0.30935525761E+02  0.00000000000E+00 0.  1.
<mgrwt>
<rscale>  2 0.22971598E+02</rscale>
<asrwt>0</asrwt>
<pdfrwt beam="2">  1       21 0.50770954E-01 0.22971598E+02</pdfrwt>
<pdfrwt beam="1">  1       -2 0.40359584E-02 0.22971598E+02</pdfrwt>
<totfact> 0.67228366E+04</totfact>
</mgrwt>
</event>
<event>
 4    1  0.2177230E+006  0.2416704E+02  0.7546771E-02  0.1673262E+00
          3   -1    0    0  502    0 -0.00000000000E+00  0.00000000000E+00  0.56989784527E+03  0.56989784527E+03  0.00000000000E+00 0. -1.
         21   -1    0    0  503  502  0.00000000000E+00 -0.00000000000E+00 -0.19869644184E+01  0.19869644184E+01  0.00000000000E+00 0.  1.
         21    1    1    2  503  501 -0.20214844130E+02 -0.13244096072E+02  0.84978683476E+02  0.88348303036E+02  0.00000000000E+00 0.  1.
          3    1    1    2  501    0  0.20214844130E+02  0.13244096072E+02  0.48293219737E+03  0.48353650665E+03  0.00000000000E+00 0. -1.
<mgrwt>
<rscale>  2 0.24167044E+02</rscale>
<asrwt>0</asrwt>
<pdfrwt beam="2">  1       21 0.30568729E-03 0.24167044E+02</pdfrwt>
<pdfrwt beam="1">  1        3 0.87676461E-01 0.24167044E+02</pdfrwt>
<totfact> 0.88855127E+05</totfact>
</mgrwt>
</event>
<event>
 4    1  0.2177230E+006  0.2844910E+02  0.7546771E-02  0.1615893E+00
         21   -1    0    0  501  502  0.00000000000E+00  0.00000000000E+00  0.80559792365E+01  0.80559792365E+01  0.00000000000E+00 0. -1.
          2   -1    0    0  503    0 -0.00000000000E+00 -0.00000000000E+00 -0.13115191910E+04  0.13115191910E+04  0.00000000000E+00 0.  1.
         21    1    1    2  503  502 -0.28138334849E+02 -0.41935254899E+01 -0.17718210086E+02  0.33515466769E+02  0.00000000000E+00 0. -1.
          2    1    1    2  501    0  0.28138334849E+02  0.41935254899E+01 -0.12857450016E+04  0.12860597034E+04  0.00000000000E+00 0.  1.
<mgrwt>
<rscale>  2 0.28449104E+02</rscale>
<asrwt>0</asrwt>
<pdfrwt beam="1">  1       21 0.12393817E-02 0.28449104E+02</pdfrwt>
<pdfrwt beam="2">  1        2 0.20177214E+00 0.28449104E+02</pdfrwt>
<totfact> 0.52099576E+05</totfact>
</mgrwt>
</event>
<event>
 4    1  0.2177230E+006  0.4255878E+02  0.7546771E-02  0.1490184E+00
         -1   -1    0    0    0  501 -0.00000000000E+00  0.00000000000E+00  0.27377128499E+03  0.27377128499E+03  0.00000000000E+00 0. -1.
         21   -1    0    0  501  502  0.00000000000E+00 -0.00000000000E+00 -0.85326861212E+01  0.85326861212E+01  0.00000000000E+00 0.  1.
         21    1    1    2  503  502 -0.42270236899E+02  0.49474170374E+01  0.65718966567E+02  0.78295800842E+02  0.00000000000E+00 0.  1.
         -1    1    1    2    0  503  0.42270236899E+02 -0.49474170374E+01  0.19951963230E+03  0.20400817027E+03  0.00000000000E+00 0. -1.
<mgrwt>
<rscale>  2 0.42558781E+02</rscale>
<asrwt>0</asrwt>
<pdfrwt beam="2">  1       21 0.13127212E-02 0.42558781E+02</pdfrwt>
<pdfrwt beam="1">  1       -1 0.42118652E-01 0.42558781E+02</pdfrwt>
<totfact> 0.10389996E+06</totfact>
</mgrwt>
</event>
<event>
 4    1  0.2177230E+006  0.2886327E+02  0.7546771E-02  0.1611005E+00
         21   -1    0    0  501  502  0.00000000000E+00  0.00000000000E+00  0.28818346962E+03  0.28818346962E+03  0.00000000000E+00 0. -1.
          1   -1    0    0  503    0 -0.00000000000E+00 -0.00000000000E+00 -0.94328837698E+02  0.94328837698E+02  0.00000000000E+00 0. -1.
         21    1    1    2  503  502  0.20003427258E+02  0.20807474596E+02  0.28523002329E+03  0.28668668313E+03  0.00000000000E+00 0. -1.
          1    1    1    2  501    0 -0.20003427258E+02 -0.20807474596E+02 -0.91375391372E+02  0.95825624180E+02  0.00000000000E+00 0. -1.
<mgrwt>
<rscale>  2 0.28863266E+02</rscale>
<asrwt>0</asrwt>
<pdfrwt beam="1">  1       21 0.44335918E-01 0.28863266E+02</pdfrwt>
<pdfrwt beam="2">  1        1 0.14512129E-01 0.28863266E+02</pdfrwt>
<totfact> 0.19972916E+04</totfact>
</mgrwt>
</event>
<event>
 4    1  0.2177230E+006  0.2014733E+02  0.7546771E-02  0.1742414E+00
          1   -1    0    0  502    0 -0.00000000000E+00  0.00000000000E+00  0.71062996555E+01  0.71062996555E+01  0.00000000000E+00 0.  1.
         21   -1    0    0  503  502  0.00000000000E+00 -0.00000000000E+00 -0.75058124942E+02  0.75058124942E+02  0.00000000000E+00 0.  1.
         21    1    1    2  503  501 -0.16228323888E+02 -0.11939706283E+02 -0.54059346017E+02  0.57691662951E+02  0.00000000000E+00 0.  1.
          1    1    1    2  501    0  0.16228323888E+02  0.11939706283E+02 -0.13892479270E+02  0.24472761646E+02  0.00000000000E+00 0.  1.
<mgrwt>
<rscale>  2 0.20147334E+02</rscale>
<asrwt>0</asrwt>
<pdfrwt beam="2">  1       21 0.11547404E-01 0.20147334E+02</pdfrwt>
<pdfrwt beam="1">  1        1 0.10932769E-02 0.20147334E+02</pdfrwt>
<totfact> 0.57127612E+06</totfact>
</mgrwt>
</event>
<event>
 4    1  0.2177230E+006  0.3194192E+02  0.7546771E-02  0.1577565E+00
         21   -1    0    0  501  502  0.00000000000E+00  0.00000000000E+00  0.28224181347E+03  0.28224181347E+03  0.00000000000E+00 0. -1.
          1   -1    0    0  503    0 -0.00000000000E+00 -0.00000000000E+00 -0.38364948550E+01  0.38364948550E+01  0.00000000000E+00 0. -1.
         21    1    1    2  503  502  0.25435150337E+02 -0.19321994213E+02  0.17357675986E+03  0.17649129694E+03  0.00000000000E+00 0. -1.
          1    1    1    2  501    0 -0.25435150337E+02  0.19321994213E+02  0.10482855875E+03  0.10958701138E+03  0.00000000000E+00 0. -1.
<mgrwt>
<rscale>  2 0.31941921E+02</rscale>
<asrwt>0</asrwt>
<pdfrwt beam="1">  1       21 0.43421801E-01 0.31941921E+02</pdfrwt>
<pdfrwt beam="2">  1        1 0.59023020E-03 0.31941921E+02</pdfrwt>
<totfact> 0.13791229E+06</totfact>
</mgrwt>
</event>
<event>
 4    1  0.2177230E+006  0.2885101E+02  0.7546771E-02  0.1611148E+00
         21   -1    0    0  503  502  0.00000000000E+00  0.00000000000E+00  0.67493939455E+02  0.67493939455E+02  0.00000000000E+00 0.  1.
          2   -1    0    0  502    0 -0.00000000000E+00 -0.00000000000E+00 -0.14963401018E+02  0.14963401018E+02  0.00000000000E+00 0.  1.
         21    1    1    2  503  501  0.25550112854E+02 -0.13400477403E+02  0.43552350916E+02  0.52241634084E+02  0.00000000000E+00 0.  1.
          2    1    1    2  501    0 -0.25550112854E+02  0.13400477403E+02  0.89781875210E+01  0.30215706390E+02  0.00000000000E+00 0.  1.
<mgrwt>
<rscale>  2 0.28851015E+02</rscale>
<asrwt>0</asrwt>
<pdfrwt beam="1">  1       21 0.10383683E-01 0.28851015E+02</pdfrwt>
<pdfrwt beam="2">  1        2 0.23020617E-02 0.28851015E+02</pdfrwt>
<totfact> 0.29378778E+06</totfact>
</mgrwt>
</event>
<event>
 4    1  0.2177230E+006  0.3795382E+02  0.7546771E-02  0.1523833E+00
         -3   -1    0    0    0  501 -0.00000000000E+00  0.00000000000E+00  0.37258469959E+01  0.37258469959E+01  0.00000000000E+00 0.  1.
         21   -1    0    0  501  502  0.00000000000E+00 -0.00000000000E+00 -0.60684555212E+03  0.60684555212E+03  0.00000000000E+00 0.  1.
         21    1    1    2  503  502 -0.23949558915E+02  0.29443355232E+02 -0.48546748490E+03  0.48694883862E+03  0.00000000000E+00 0.  1.
         -3    1    1    2    0  503  0.23949558915E+02 -0.29443355232E+02 -0.11765222022E+03  0.12362256049E+03  0.00000000000E+00 0.  1.
<mgrwt>
<rscale>  2 0.37953821E+02</rscale>
<asrwt>0</asrwt>
<pdfrwt beam="2">  1       21 0.93360846E-01 0.37953821E+02</pdfrwt>
<pdfrwt beam="1">  1       -3 0.57320728E-03 0.37953821E+02</pdfrwt>
<totfact> 0.23819132E+05</totfact>
</mgrwt>
</event>
<event>
 4    1  0.2177230E+006  0.2724646E+02  0.7546771E-02  0.1630685E+00
          2   -1    0    0  503    0 -0.00000000000E+00  0.00000000000E+00  0.94942740570E+00  0.94942740570E+00  0.00000000000E+00 0. -1.
         21   -1    0    0  501  502  0.00000000000E+00 -0.00000000000E+00 -0.79053376214E+03  0.79053376214E+03  0.00000000000E+00 0. -1.
         21    1    1    2  503  502  0.14380566039E+02  0.23142358169E+02 -0.43611878735E+03  0.43696906767E+03  0.00000000000E+00 0. -1.
          2    1    1    2  501    0 -0.14380566039E+02 -0.23142358169E+02 -0.35346554738E+03  0.35451412188E+03  0.00000000000E+00 0. -1.
<mgrwt>
<rscale>  2 0.27246457E+02</rscale>
<asrwt>0</asrwt>
<pdfrwt beam="2">  1       21 0.12162067E+00 0.27246457E+02</pdfrwt>
<pdfrwt beam="1">  1        2 0.14606564E-03 0.27246457E+02</pdfrwt>
<totfact> 0.99820308E+05</totfact>
</mgrwt>
</event>
<event>
 4    1  0.2177230E+006  0.2547987E+02  0.7546771E-02  0.1654203E+00
         21   -1    0    0  503  502  0.00000000000E+00  0.00000000000E+00  0.60584137307E+02  0.60584137307E+02  0.00000000000E+00 0.  1.
         -2   -1    0    0    0  501 -0.00000000000E+00 -0.00000000000E+00 -0.24889274775E+02  0.24889274775E+02  0.00000000000E+00 0.  1.
         21    1    1    2  503  501 -0.21588122382E+01 -0.25388254533E+02  0.50097373019E+02  0.56204721526E+02  0.00000000000E+00 0.  1.
         -2    1    1    2    0  502  0.21588122382E+01  0.25388254533E+02 -0.14402510487E+02  0.29268690555E+02  0.00000000000E+00 0.  1.
<mgrwt>
<rscale>  2 0.25479873E+02</rscale>
<asrwt>0</asrwt>
<pdfrwt beam="1">  1       21 0.93206365E-02 0.25479873E+02</pdfrwt>
<pdfrwt beam="2">  1       -2 0.38291192E-02 0.25479873E+02</pdfrwt>
<totfact> 0.14947286E+06</totfact>
</mgrwt>
</event>
<event>
 4    1  0.2177230E+006  0.2407604E+02  0.7546771E-02  0.1674639E+00
          1   -1    0    0  502    0 -0.00000000000E+00  0.00000000000E+00  0.14072604640E+04  0.14072604640E+04  0.00000000000E+00 0.  1.
         21   -1    0    0  503  502  0.00000000000E+00 -0.00000000000E+00 -0.67345369677E+00  0.67345369677E+00  0.00000000000E+00 0.  1.
         21    1    1    2  503  501  0.10879970370E+02  0.21477469751E+02  0.26458509582E+03  0.26567824223E+03  0.00000000000E+00 0.  1.
          1    1    1    2  501    0 -0.10879970370E+02 -0.21477469751E+02  0.11420019145E+04  0.11422556755E+04  0.00000000000E+00 0.  1.
<mgrwt>
<rscale>  2 0.24076035E+02</rscale>
<asrwt>0</asrwt>
<pdfrwt beam="2">  1       21 0.10360939E-03 0.24076035E+02</pdfrwt>
<pdfrwt beam="1">  1        1 0.21649926E+00 0.24076035E+02</pdfrwt>
<totfact> 0.86013351E+06</totfact>
</mgrwt>
</event>
<event>
 4    1  0.2177230E+006  0.2129751E+02  0.7546771E-02  0.1720692E+00
         -1   -1    0    0    0  501 -0.00000000000E+00  0.00000000000E+00  0.29710061129E+02  0.29710061129E+02  0.00000000000E+00 0.  1.
         21   -1    0    0  503  502  0.00000000000E+00 -0.00000000000E+00 -0.34081717852E+02  0.34081717852E+02  0.00000000000E+00 0. -1.
         21    1    1    2  503  501  0.64960076371E+01  0.20282643331E+02 -0.25884431282E+02  0.33519957018E+02  0.00000000000E+00 0. -1.
         -1    1    1    2    0  502 -0.64960076371E+01 -0.20282643331E+02  0.21512774559E+02  0.30271821963E+02  0.00000000000E+00 0.  1.
<mgrwt>
<rscale>  2 0.21297505E+02</rscale>
<asrwt>0</asrwt>
<pdfrwt beam="2">  1       21 0.52433412E-02 0.21297505E+02</pdfrwt>
<pdfrwt beam="1">  1       -1 0.45707786E-02 0.21297505E+02</pdfrwt>
<totfact> 0.28892891E+06</totfact>
</mgrwt>
</event>
<event>
 4    1  0.2177230E+006  0.2340818E+02  0.7546771E-02  0.1684978E+00
         -1   -1    0    0    0  501 -0.00000000000E+00  0.00000000000E+00  0.33337060862E+03  0.33337060862E+03  0.00000000000E+00 0. -1.
         21   -1    0    0  503  502  0.00000000000E+00 -0.00000000000E+00 -0.47564370561E+02  0.47564370561E+02  0.00000000000E+00 0. -1.
         21    1    1    2  503  501 -0.10855353419E+02 -0.20738955454E+02 -0.44244519278E+02  0.50055174131E+02  0.00000000000E+00 0. -1.
         -1    1    1    2    0  502  0.10855353419E+02  0.20738955454E+02  0.33005075733E+03  0.33087980505E+03  0.00000000000E+00 0. -1.
<mgrwt>
<rscale>  2 0.23408182E+02</rscale>
<asrwt>0</asrwt>
<pdfrwt beam="2">  1       21 0.73175957E-02 0.23408182E+02</pdfrwt>
<pdfrwt beam="1">  1       -1 0.51287784E-01 0.23408182E+02</pdfrwt>
<totfact> 0.44966668E+04</totfact>
</mgrwt>
</event>
<event>
 4    1  0.2177230E+006  0.2352646E+02  0.7546771E-02  0.1683116E+00
         21   -1    0    0  503  502  0.00000000000E+00  0.00000000000E+00  0.21630651768E+03  0.21630651768E+03  0.00000000000E+00 0. -1.
          1   -1    0    0  502    0 -0.00000000000E+00 -0.00000000000E+00 -0.44437356420E+02  0.44437356420E+02  0.00000000000E+00 0. -1.
         21    1    1    2  503  501 -0.23244338369E+02 -0.36325231111E+01  0.21249725336E+03  0.21379564349E+03  0.00000000000E+00 0. -1.
          1    1    1    2  501    0  0.23244338369E+02  0.36325231111E+01 -0.40628092095E+02  0.46948230613E+02  0.00000000000E+00 0. -1.
<mgrwt>
<rscale>  2 0.23526464E+02</rscale>
<asrwt>0</asrwt>
<pdfrwt beam="1">  1       21 0.33277925E-01 0.23526464E+02</pdfrwt>
<pdfrwt beam="2">  1        1 0.68365165E-02 0.23526464E+02</pdfrwt>
<totfact> 0.86560430E+04</totfact>
</mgrwt>
</event>
<event>
 4    1  0.2177230E+006  0.2072104E+02  0.7546771E-02  0.1731358E+00
          1   -1    0    0  503    0 -0.00000000000E+00  0.00000000000E+00  0.61827945591E+00  0.61827945591E+00  0.00000000000E+00 0. -1.
         21   -1    0    0  501  502  0.00000000000E+00 -0.00000000000E+00 -0.71999305275E+03  0.71999305275E+03  0.00000000000E+00 0. -1.
         21    1    1    2  503  502  0.10965772795E+02  0.17581623443E+02 -0.42755739138E+03  0.42805920686E+03  0.00000000000E+00 0. -1.
          1    1    1    2  501    0 -0.10965772795E+02 -0.17581623443E+02 -0.29181738191E+03  0.29255212534E+03  0.00000000000E+00 0. -1.
<mgrwt>
<rscale>  2 0.20721044E+02</rscale>
<asrwt>0</asrwt>
<pdfrwt beam="2">  1       21 0.11076830E+00 0.20721044E+02</pdfrwt>
<pdfrwt beam="1">  1        1 0.95119795E-04 0.20721044E+02</pdfrwt>
<totfact> 0.20306759E+06</totfact>
</mgrwt>
</event>
<event>
 4    1  0.2177230E+006  0.2639795E+02  0.7546771E-02  0.1641698E+00
         -1   -1    0    0    0  501 -0.00000000000E+00  0.00000000000E+00  0.19109041930E+03  0.19109041930E+03  0.00000000000E+00 0.  1.
         21   -1    0    0  503  502  0.00000000000E+00 -0.00000000000E+00 -0.44283488530E+01  0.44283488530E+01  0.00000000000E+00 0.  1.
         21    1    1    2  503  501 -0.24757248183E+02 -0.91613636643E+01  0.52259610198E+02  0.58548431062E+02  0.00000000000E+00 0.  1.
         -1    1    1    2    0  502  0.24757248183E+02  0.91613636643E+01  0.13440246025E+03  0.13697033709E+03  0.00000000000E+00 0.  1.
<mgrwt>
<rscale>  2 0.26397953E+02</rscale>
<asrwt>0</asrwt>
<pdfrwt beam="2">  1       21 0.68128458E-03 0.26397953E+02</pdfrwt>
<pdfrwt beam="1">  1       -1 0.29398520E-01 0.26397953E+02</pdfrwt>
<totfact> 0.45856089E+06</totfact>
</mgrwt>
</event>
<event>
 4    1  0.2177230E+006  0.2093339E+02  0.7546771E-02  0.1727379E+00
         21   -1    0    0  503  502  0.00000000000E+00  0.00000000000E+00  0.46607788807E+03  0.46607788807E+03  0.00000000000E+00 0.  1.
          1   -1    0    0  502    0 -0.00000000000E+00 -0.00000000000E+00 -0.13881934260E+01  0.13881934260E+01  0.00000000000E+00 0. -1.
         21    1    1    2  503  501  0.15675866498E+02 -0.13873494589E+02  0.36512425201E+03  0.36572383850E+03  0.00000000000E+00 0.  1.
          1    1    1    2  501    0 -0.15675866498E+02  0.13873494589E+02  0.99565442632E+02  0.10174224299E+03  0.00000000000E+00 0. -1.
<mgrwt>
<rscale>  2 0.20933386E+02</rscale>
<asrwt>0</asrwt>
<pdfrwt beam="1">  1       21 0.71704166E-01 0.20933386E+02</pdfrwt>
<pdfrwt beam="2">  1        1 0.21356859E-03 0.20933386E+02</pdfrwt>
<totfact> 0.17835180E+06</totfact>
</mgrwt>
</event>
<event>
 4    1  0.2177230E+006  0.4614616E+02  0.7546771E-02  0.1467311E+00
          1   -1    0    0  503    0 -0.00000000000E+00  0.00000000000E+00  0.51376597010E+03  0.51376597010E+03  0.00000000000E+00 0. -1.
         21   -1    0    0  501  502  0.00000000000E+00 -0.00000000000E+00 -0.18623499584E+02  0.18623499584E+02  0.00000000000E+00 0. -1.
         21    1    1    2  503  502  0.40305501760E+02  0.22470749611E+02  0.12860326102E+02  0.47904655804E+02  0.00000000000E+00 0. -1.
          1    1    1    2  501    0 -0.40305501760E+02 -0.22470749611E+02  0.48228214442E+03  0.48448481388E+03  0.00000000000E+00 0. -1.
<mgrwt>
<rscale>  2 0.46146160E+02</rscale>
<asrwt>0</asrwt>
<pdfrwt beam="2">  1       21 0.28651542E-02 0.46146160E+02</pdfrwt>
<pdfrwt beam="1">  1        1 0.79040908E-01 0.46146160E+02</pdfrwt>
<totfact> 0.29885371E+05</totfact>
</mgrwt>
</event>
<event>
 4    1  0.2177230E+006  0.2432093E+02  0.7546771E-02  0.1670952E+00
         -4   -1    0    0    0  501 -0.00000000000E+00  0.00000000000E+00  0.75420815448E+02  0.75420815448E+02  0.00000000000E+00 0.  1.
         21   -1    0    0  501  502  0.00000000000E+00 -0.00000000000E+00 -0.23263353971E+02  0.23263353971E+02  0.00000000000E+00 0.  1.
         21    1    1    2  503  502  0.15989545057E+02 -0.18325992100E+02 -0.14094045618E+02  0.28109600841E+02  0.00000000000E+00 0.  1.
         -4    1    1    2    0  503 -0.15989545057E+02  0.18325992100E+02  0.66251507095E+02  0.70574568577E+02  0.00000000000E+00 0.  1.
<mgrwt>
<rscale>  2 0.24320928E+02</rscale>
<asrwt>0</asrwt>
<pdfrwt beam="2">  1       21 0.35789776E-02 0.24320928E+02</pdfrwt>
<pdfrwt beam="1">  1       -4 0.11603202E-01 0.24320928E+02</pdfrwt>
<totfact> 0.68176490E+05</totfact>
</mgrwt>
</event>
<event>
 4    1  0.2177230E+006  0.2009058E+02  0.7546771E-02  0.1743533E+00
          2   -1    0    0  503    0 -0.00000000000E+00  0.00000000000E+00  0.59491241702E+02  0.59491241702E+02  0.00000000000E+00 0. -1.
         21   -1    0    0  501  502  0.00000000000E+00 -0.00000000000E+00 -0.55585572136E+02  0.55585572136E+02  0.00000000000E+00 0.  1.
         21    1    1    2  503  502  0.14346137387E+01 -0.20039289971E+02 -0.51959793905E+02  0.55708629868E+02  0.00000000000E+00 0.  1.
          2    1    1    2  501    0 -0.14346137387E+01  0.20039289971E+02  0.55865463471E+02  0.59368183970E+02  0.00000000000E+00 0. -1.
<mgrwt>
<rscale>  2 0.20090576E+02</rscale>
<asrwt>0</asrwt>
<pdfrwt beam="2">  1       21 0.85516265E-02 0.20090576E+02</pdfrwt>
<pdfrwt beam="1">  1        2 0.91524988E-02 0.20090576E+02</pdfrwt>
<totfact> 0.68511003E+05</totfact>
</mgrwt>
</event>
<event>
 4    1  0.2177230E+006  0.2856238E+02  0.7546771E-02  0.1614546E+00
          1   -1    0    0  502    0 -0.00000000000E+00  0.00000000000E+00  0.43755003703E+03  0.43755003703E+03  0.00000000000E+00 0. -1.
         21   -1    0    0  503  502  0.00000000000E+00 -0.00000000000E+00 -0.74997570124E+01  0.74997570124E+01  0.00000000000E+00 0. -1.
         21    1    1    2  503  501 -0.89638450872E+01 -0.27119345961E+02  0.22134077481E+02  0.36134842328E+02  0.00000000000E+00 0. -1.
          1    1    1    2  501    0  0.89638450872E+01  0.27119345961E+02  0.40791620253E+03  0.40891495171E+03  0.00000000000E+00 0. -1.
<mgrwt>
<rscale>  2 0.28562378E+02</rscale>
<asrwt>0</asrwt>
<pdfrwt beam="2">  1       21 0.11538091E-02 0.28562378E+02</pdfrwt>
<pdfrwt beam="1">  1        1 0.67315370E-01 0.28562378E+02</pdfrwt>
<totfact> 0.13989641E+06</totfact>
</mgrwt>
</event>
<event>
 4    1  0.2177230E+006  0.3380084E+02  0.7546771E-02  0.1559515E+00
         21   -1    0    0  501  502  0.00000000000E+00  0.00000000000E+00  0.12826949925E+03  0.12826949925E+03  0.00000000000E+00 0.  1.
         -2   -1    0    0    0  501 -0.00000000000E+00 -0.00000000000E+00 -0.13191417193E+02  0.13191417193E+02  0.00000000000E+00 0.  1.
         21    1    1    2  503  502  0.29628855308E+02 -0.16267375078E+02  0.97848462917E+02  0.10352206651E+03  0.00000000000E+00 0.  1.
         -2    1    1    2    0  503 -0.29628855308E+02  0.16267375078E+02  0.17229619140E+02  0.37938849936E+02  0.00000000000E+00 0.  1.
<mgrwt>
<rscale>  2 0.33800837E+02</rscale>
<asrwt>0</asrwt>
<pdfrwt beam="1">  1       21 0.19733768E-01 0.33800837E+02</pdfrwt>
<pdfrwt beam="2">  1       -2 0.20294489E-02 0.33800837E+02</pdfrwt>
<totfact> 0.10724818E+06</totfact>
</mgrwt>
</event>
<event>
 4    1  0.2177230E+006  0.2090455E+02  0.7546771E-02  0.1727916E+00
         -1   -1    0    0    0  501 -0.00000000000E+00  0.00000000000E+00  0.19740071548E+02  0.19740071548E+02  0.00000000000E+00 0.  1.
         21   -1    0    0  503  502  0.00000000000E+00 -0.00000000000E+00 -0.23315092861E+02  0.23315092861E+02  0.00000000000E+00 0.  1.
         21    1    1    2  503  501 -0.17073890034E+02 -0.12061613432E+02 -0.66251457410E+01  0.21929268013E+02  0.00000000000E+00 0.  1.
         -1    1    1    2    0  502  0.17073890034E+02  0.12061613432E+02  0.30501244280E+01  0.21125896396E+02  0.00000000000E+00 0.  1.
<mgrwt>
<rscale>  2 0.20904551E+02</rscale>
<asrwt>0</asrwt>
<pdfrwt beam="2">  1       21 0.35869374E-02 0.20904551E+02</pdfrwt>
<pdfrwt beam="1">  1       -1 0.30369341E-02 0.20904551E+02</pdfrwt>
<totfact> 0.91846894E+06</totfact>
</mgrwt>
</event>
<event>
 4    1  0.2177230E+006  0.2553301E+02  0.7546771E-02  0.1653462E+00
         21   -1    0    0  503  502  0.00000000000E+00  0.00000000000E+00  0.11884648730E+04  0.11884648730E+04  0.00000000000E+00 0.  1.
         -4   -1    0    0    0  501 -0.00000000000E+00 -0.00000000000E+00 -0.67604870781E+00  0.67604870781E+00  0.00000000000E+00 0.  1.
         21    1    1    2  503  501  0.14088637673E+00  0.25532619085E+02  0.85209917329E+03  0.85248163359E+03  0.00000000000E+00 0.  1.
         -4    1    1    2    0  502 -0.14088637673E+00 -0.25532619085E+02  0.33568965105E+03  0.33665928816E+03  0.00000000000E+00 0.  1.
<mgrwt>
<rscale>  2 0.25533008E+02</rscale>
<asrwt>0</asrwt>
<pdfrwt beam="1">  1       21 0.18283908E+00 0.25533008E+02</pdfrwt>
<pdfrwt beam="2">  1       -4 0.10400844E-03 0.25533008E+02</pdfrwt>
<totfact> 0.43696465E+05</totfact>
</mgrwt>
</event>
<event>
 4    1  0.2177230E+006  0.2078410E+02  0.7546771E-02  0.1730170E+00
         21   -1    0    0  503  502  0.00000000000E+00  0.00000000000E+00  0.19088941747E+01  0.19088941747E+01  0.00000000000E+00 0.  1.
          2   -1    0    0  502    0 -0.00000000000E+00 -0.00000000000E+00 -0.12058111207E+04  0.12058111207E+04  0.00000000000E+00 0. -1.
         21    1    1    2  503  501 -0.15973660908E+02 -0.13297399545E+02 -0.57696919403E+02  0.61326284627E+02  0.00000000000E+00 0.  1.
          2    1    1    2  501    0  0.15973660908E+02  0.13297399545E+02 -0.11462053071E+04  0.11463937302E+04  0.00000000000E+00 0. -1.
<mgrwt>
<rscale>  2 0.20784097E+02</rscale>
<asrwt>0</asrwt>
<pdfrwt beam="1">  1       21 0.29367643E-03 0.20784097E+02</pdfrwt>
<pdfrwt beam="2">  1        2 0.18550915E+00 0.20784097E+02</pdfrwt>
<totfact> 0.47330871E+06</totfact>
</mgrwt>
</event>
<event>
 4    1  0.2177230E+006  0.4628916E+02  0.7546771E-02  0.1466450E+00
          2   -1    0    0  502    0 -0.00000000000E+00  0.00000000000E+00  0.64212407043E+03  0.64212407043E+03  0.00000000000E+00 0. -1.
         21   -1    0    0  503  502  0.00000000000E+00 -0.00000000000E+00 -0.39309284945E+01  0.39309284945E+01  0.00000000000E+00 0. -1.
         21    1    1    2  503  501 -0.26452389337E+02 -0.37986282359E+02  0.19352093421E+03  0.19897999529E+03  0.00000000000E+00 0. -1.
          2    1    1    2  501    0  0.26452389337E+02  0.37986282359E+02  0.44467220772E+03  0.44707500363E+03  0.00000000000E+00 0. -1.
<mgrwt>
<rscale>  2 0.46289162E+02</rscale>
<asrwt>0</asrwt>
<pdfrwt beam="2">  1       21 0.60475874E-03 0.46289162E+02</pdfrwt>
<pdfrwt beam="1">  1        2 0.98788235E-01 0.46289162E+02</pdfrwt>
<totfact> 0.40642072E+06</totfact>
</mgrwt>
</event>
<event>
 4    1  0.2177230E+006  0.3228957E+02  0.7546771E-02  0.1574077E+00
         -3   -1    0    0    0  501 -0.00000000000E+00  0.00000000000E+00  0.11260157437E+02  0.11260157437E+02  0.00000000000E+00 0.  1.
         21   -1    0    0  501  502  0.00000000000E+00 -0.00000000000E+00 -0.22662455597E+03  0.22662455597E+03  0.00000000000E+00 0.  1.
         21    1    1    2  503  502 -0.16776813980E+02 -0.27589034067E+02 -0.19915372729E+03  0.20175436397E+03  0.00000000000E+00 0.  1.
         -3    1    1    2    0  503  0.16776813980E+02  0.27589034067E+02 -0.16210671240E+02  0.36130349433E+02  0.00000000000E+00 0.  1.
<mgrwt>
<rscale>  2 0.32289569E+02</rscale>
<asrwt>0</asrwt>
<pdfrwt beam="2">  1       21 0.34865317E-01 0.32289569E+02</pdfrwt>
<pdfrwt beam="1">  1       -3 0.17323319E-02 0.32289569E+02</pdfrwt>
<totfact> 0.34118824E+05</totfact>
</mgrwt>
</event>
<event>
 4    1  0.2177230E+006  0.2001985E+02  0.7546771E-02  0.1744934E+00
         21   -1    0    0  503  502  0.00000000000E+00  0.00000000000E+00  0.57509565215E+03  0.57509565215E+03  0.00000000000E+00 0. -1.
          3   -1    0    0  502    0 -0.00000000000E+00 -0.00000000000E+00 -0.26910997220E+01  0.26910997220E+01  0.00000000000E+00 0.  1.
         21    1    1    2  503  501  0.15318541311E+02 -0.12889409371E+02  0.53489039705E+03  0.53526491707E+03  0.00000000000E+00 0. -1.
          3    1    1    2  501    0 -0.15318541311E+02  0.12889409371E+02  0.37514155378E+02  0.42521834809E+02  0.00000000000E+00 0.  1.
<mgrwt>
<rscale>  2 0.20019855E+02</rscale>
<asrwt>0</asrwt>
<pdfrwt beam="1">  1       21 0.88476156E-01 0.20019855E+02</pdfrwt>
<pdfrwt beam="2">  1        3 0.41401580E-03 0.20019855E+02</pdfrwt>
<totfact> 0.36410829E+05</totfact>
</mgrwt>
</event>
<event>
 4    1  0.2177230E+006  0.2419395E+02  0.7546771E-02  0.1672857E+00
         21   -1    0    0  503  502  0.00000000000E+00  0.00000000000E+00  0.97824737562E+00  0.97824737562E+00  0.00000000000E+00 0. -1.
          1   -1    0    0  502    0 -0.00000000000E+00 -0.00000000000E+00 -0.91367512576E+03  0.91367512576E+03  0.00000000000E+00 0.  1.
         21    1    1    2  503  501 -0.41191124473E+01 -0.23840724458E+02 -0.18768978036E+03  0.18924270365E+03  0.00000000000E+00 0. -1.
          1    1    1    2  501    0  0.41191124473E+01  0.23840724458E+02 -0.72500709803E+03  0.72541066950E+03  0.00000000000E+00 0.  1.
<mgrwt>
<rscale>  2 0.24193950E+02</rscale>
<asrwt>0</asrwt>
<pdfrwt beam="1">  1       21 0.15049949E-03 0.24193950E+02</pdfrwt>
<pdfrwt beam="2">  1        1 0.14056550E+00 0.24193950E+02</pdfrwt>
<totfact> 0.10474841E+07</totfact>
</mgrwt>
</event>
<event>
 4    1  0.2177230E+006  0.2501599E+02  0.7546771E-02  0.1660772E+00
          1   -1    0    0  502    0 -0.00000000000E+00  0.00000000000E+00  0.14602683049E+04  0.14602683049E+04  0.00000000000E+00 0.  1.
         21   -1    0    0  503  502  0.00000000000E+00 -0.00000000000E+00 -0.19374039169E+01  0.19374039169E+01  0.00000000000E+00 0. -1.
         21    1    1    2  503  501  0.22251052706E+02 -0.11431998323E+02  0.83969254902E+02  0.87616412281E+02  0.00000000000E+00 0. -1.
          1    1    1    2  501    0 -0.22251052706E+02  0.11431998323E+02  0.13743616461E+04  0.13745892966E+04  0.00000000000E+00 0.  1.
<mgrwt>
<rscale>  2 0.25015994E+02</rscale>
<asrwt>0</asrwt>
<pdfrwt beam="2">  1       21 0.29806331E-03 0.25015994E+02</pdfrwt>
<pdfrwt beam="1">  1        1 0.22465578E+00 0.25015994E+02</pdfrwt>
<totfact> 0.17516295E+06</totfact>
</mgrwt>
</event>
<event>
 4    1  0.2177230E+006  0.2005411E+02  0.7546771E-02  0.1744254E+00
         21   -1    0    0  503  502  0.00000000000E+00  0.00000000000E+00  0.37877472291E+03  0.37877472291E+03  0.00000000000E+00 0. -1.
          2   -1    0    0  502    0 -0.00000000000E+00 -0.00000000000E+00 -0.10776701672E+03  0.10776701672E+03  0.00000000000E+00 0.  1.
         21    1    1    2  503  501 -0.18516838715E+02  0.77002533646E+01  0.37757336170E+03  0.37810555494E+03  0.00000000000E+00 0. -1.
          2    1    1    2  501    0  0.18516838715E+02 -0.77002533646E+01 -0.10656565550E+03  0.10843618469E+03  0.00000000000E+00 0.  1.
<mgrwt>
<rscale>  2 0.20054107E+02</rscale>
<asrwt>0</asrwt>
<pdfrwt beam="1">  1       21 0.58273034E-01 0.20054107E+02</pdfrwt>
<pdfrwt beam="2">  1        2 0.16579541E-01 0.20054107E+02</pdfrwt>
<totfact> 0.11836010E+04</totfact>
</mgrwt>
</event>
<event>
 4    1  0.2177230E+006  0.2577092E+02  0.7546771E-02  0.1650170E+00
         21   -1    0    0  503  502  0.00000000000E+00  0.00000000000E+00  0.27447057747E+02  0.27447057747E+02  0.00000000000E+00 0. -1.
         -1   -1    0    0    0  501 -0.00000000000E+00 -0.00000000000E+00 -0.30160400810E+03  0.30160400810E+03  0.00000000000E+00 0. -1.
         21    1    1    2  503  501 -0.10243013802E+02  0.23647855763E+02  0.20709300214E+02  0.33060785370E+02  0.00000000000E+00 0. -1.
         -1    1    1    2    0  502  0.10243013802E+02 -0.23647855763E+02 -0.29486625056E+03  0.29599028048E+03  0.00000000000E+00 0. -1.
<mgrwt>
<rscale>  2 0.25770922E+02</rscale>
<asrwt>0</asrwt>
<pdfrwt beam="1">  1       21 0.42226246E-02 0.25770922E+02</pdfrwt>
<pdfrwt beam="2">  1       -1 0.46400614E-01 0.25770922E+02</pdfrwt>
<totfact> 0.13073227E+05</totfact>
</mgrwt>
</event>
<event>
 4    1  0.2177230E+006  0.4094169E+02  0.7546771E-02  0.1501394E+00
          2   -1    0    0  502    0 -0.00000000000E+00  0.00000000000E+00  0.11347481002E+04  0.11347481002E+04  0.00000000000E+00 0. -1.
         21   -1    0    0  503  502  0.00000000000E+00 -0.00000000000E+00 -0.19558088798E+01  0.19558088798E+01  0.00000000000E+00 0.  1.
         21    1    1    2  503  501  0.40867477305E+02 -0.24640775818E+01  0.28523485539E+03  0.28815819459E+03  0.00000000000E+00 0.  1.
          2    1    1    2  501    0 -0.40867477305E+02  0.24640775818E+01  0.84755743590E+03  0.84854571446E+03  0.00000000000E+00 0. -1.
<mgrwt>
<rscale>  2 0.40941695E+02</rscale>
<asrwt>0</asrwt>
<pdfrwt beam="2">  1       21 0.30089458E-03 0.40941695E+02</pdfrwt>
<pdfrwt beam="1">  1        2 0.17457610E+00 0.40941695E+02</pdfrwt>
<totfact> 0.56593118E+06</totfact>
</mgrwt>
</event>
<event>
 4    1  0.2177230E+006  0.2362231E+02  0.7546771E-02  0.1681617E+00
         21   -1    0    0  501  502  0.00000000000E+00  0.00000000000E+00  0.30873302832E+01  0.30873302832E+01  0.00000000000E+00 0.  1.
         -1   -1    0    0    0  501 -0.00000000000E+00 -0.00000000000E+00 -0.51206870903E+03  0.51206870903E+03  0.00000000000E+00 0.  1.
         21    1    1    2  503  502 -0.10766615350E+02  0.21026024347E+02 -0.47299076799E+02  0.52869805862E+02  0.00000000000E+00 0.  1.
         -1    1    1    2    0  503  0.10766615350E+02 -0.21026024347E+02 -0.46168230194E+03  0.46228623345E+03  0.00000000000E+00 0.  1.
<mgrwt>
<rscale>  2 0.23622314E+02</rscale>
<asrwt>0</asrwt>
<pdfrwt beam="1">  1       21 0.47497408E-03 0.23622314E+02</pdfrwt>
<pdfrwt beam="2">  1       -1 0.78779770E-01 0.23622314E+02</pdfrwt>
<totfact> 0.13763239E+06</totfact>
</mgrwt>
</event>
<event>
 4    1  0.2177230E+006  0.2491176E+02  0.7546771E-02  0.1662273E+00
         -1   -1    0    0    0  501 -0.00000000000E+00  0.00000000000E+00  0.59911782994E+02  0.59911782994E+02  0.00000000000E+00 0.  1.
         21   -1    0    0  503  502  0.00000000000E+00 -0.00000000000E+00 -0.62334666425E+02  0.62334666425E+02  0.00000000000E+00 0.  1.
         21    1    1    2  503  501  0.20752294089E+02 -0.13781796570E+02 -0.57025499932E+02  0.62229440534E+02  0.00000000000E+00 0.  1.
         -1    1    1    2    0  502 -0.20752294089E+02  0.13781796570E+02  0.54602616501E+02  0.60017008885E+02  0.00000000000E+00 0.  1.
<mgrwt>
<rscale>  2 0.24911757E+02</rscale>
<asrwt>0</asrwt>
<pdfrwt beam="2">  1       21 0.95899487E-02 0.24911757E+02</pdfrwt>
<pdfrwt beam="1">  1       -1 0.92171974E-02 0.24911757E+02</pdfrwt>
<totfact> 0.41808985E+05</totfact>
</mgrwt>
</event>
<event>
 4    1  0.2177230E+006  0.2163513E+02  0.7546771E-02  0.1714640E+00
         21   -1    0    0  503  502  0.00000000000E+00  0.00000000000E+00  0.86130856980E+02  0.86130856980E+02  0.00000000000E+00 0. -1.
         -1   -1    0    0    0  501 -0.00000000000E+00 -0.00000000000E+00 -0.73990461654E+02  0.73990461654E+02  0.00000000000E+00 0. -1.
         21    1    1    2  503  501  0.86130802270E+01  0.19846755688E+02  0.83134611753E+02  0.85903681724E+02  0.00000000000E+00 0. -1.
         -1    1    1    2    0  502 -0.86130802270E+01 -0.19846755688E+02 -0.70994216428E+02  0.74217636910E+02  0.00000000000E+00 0. -1.
<mgrwt>
<rscale>  2 0.21635130E+02</rscale>
<asrwt>0</asrwt>
<pdfrwt beam="1">  1       21 0.13250901E-01 0.21635130E+02</pdfrwt>
<pdfrwt beam="2">  1       -1 0.11383148E-01 0.21635130E+02</pdfrwt>
<totfact> 0.17524046E+05</totfact>
</mgrwt>
</event>
<event>
 4    1  0.2177230E+006  0.2056208E+02  0.7546771E-02  0.1734376E+00
         21   -1    0    0  503  502  0.00000000000E+00  0.00000000000E+00  0.69390700452E+00  0.69390700452E+00  0.00000000000E+00 0.  1.
          2   -1    0    0  502    0 -0.00000000000E+00 -0.00000000000E+00 -0.12964681612E+04  0.12964681612E+04  0.00000000000E+00 0. -1.
         21    1    1    2  503  501 -0.11191866718E+02 -0.17249381640E+02 -0.17569999908E+03  0.17689909193E+03  0.00000000000E+00 0.  1.
          2    1    1    2  501    0  0.11191866718E+02  0.17249381640E+02 -0.11200742551E+04  0.11202629763E+04  0.00000000000E+00 0. -1.
<mgrwt>
<rscale>  2 0.20562078E+02</rscale>
<asrwt>0</asrwt>
<pdfrwt beam="1">  1       21 0.10675480E-03 0.20562078E+02</pdfrwt>
<pdfrwt beam="2">  1        2 0.19945688E+00 0.20562078E+02</pdfrwt>
<totfact> 0.18207699E+07</totfact>
</mgrwt>
</event>
<event>
 4    1  0.2177230E+006  0.2117310E+02  0.7546771E-02  0.1722958E+00
         21   -1    0    0  503  502  0.00000000000E+00  0.00000000000E+00  0.27076338713E+02  0.27076338713E+02  0.00000000000E+00 0. -1.
          2   -1    0    0  502    0 -0.00000000000E+00 -0.00000000000E+00 -0.59393542031E+03  0.59393542031E+03  0.00000000000E+00 0.  1.
         21    1    1    2  503  501  0.56214726769E+01 -0.20413214951E+02  0.22717824162E+02  0.31054787624E+02  0.00000000000E+00 0. -1.
          2    1    1    2  501    0 -0.56214726769E+01  0.20413214951E+02 -0.58957690576E+03  0.58995697140E+03  0.00000000000E+00 0.  1.
<mgrwt>
<rscale>  2 0.21173103E+02</rscale>
<asrwt>0</asrwt>
<pdfrwt beam="1">  1       21 0.41655905E-02 0.21173103E+02</pdfrwt>
<pdfrwt beam="2">  1        2 0.91374681E-01 0.21173103E+02</pdfrwt>
<totfact> 0.20084636E+05</totfact>
</mgrwt>
</event>
<event>
 4    1  0.2177230E+006  0.5502888E+02  0.7546771E-02  0.1419962E+00
          2   -1    0    0  502    0 -0.00000000000E+00  0.00000000000E+00  0.54551020370E+02  0.54551020370E+02  0.00000000000E+00 0.  1.
         21   -1    0    0  503  502  0.00000000000E+00 -0.00000000000E+00 -0.80314704890E+02  0.80314704890E+02  0.00000000000E+00 0.  1.
         21    1    1    2  503  501 -0.22538179409E+02  0.50201677917E+02 -0.50356090846E+02  0.74591647535E+02  0.00000000000E+00 0.  1.
          2    1    1    2  501    0  0.22538179409E+02 -0.50201677917E+02  0.24592406326E+02  0.60274077726E+02  0.00000000000E+00 0.  1.
<mgrwt>
<rscale>  2 0.55028883E+02</rscale>
<asrwt>0</asrwt>
<pdfrwt beam="2">  1       21 0.12356108E-01 0.55028883E+02</pdfrwt>
<pdfrwt beam="1">  1        2 0.83924647E-02 0.55028883E+02</pdfrwt>
<totfact> 0.47961599E+05</totfact>
</mgrwt>
</event>
<event>
 4    1  0.2177230E+006  0.2056268E+02  0.7546771E-02  0.1734364E+00
         21   -1    0    0  503  502  0.00000000000E+00  0.00000000000E+00  0.12237527342E+03  0.12237527342E+03  0.00000000000E+00 0. -1.
          1   -1    0    0  502    0 -0.00000000000E+00 -0.00000000000E+00 -0.19124948274E+03  0.19124948274E+03  0.00000000000E+00 0.  1.
         21    1    1    2  503  501 -0.39173995051E+01  0.20186083219E+02  0.12095231917E+03  0.12268776421E+03  0.00000000000E+00 0. -1.
          1    1    1    2  501    0  0.39173995051E+01 -0.20186083219E+02 -0.18982652849E+03  0.19093699195E+03  0.00000000000E+00 0.  1.
<mgrwt>
<rscale>  2 0.20562684E+02</rscale>
<asrwt>0</asrwt>
<pdfrwt beam="1">  1       21 0.18826965E-01 0.20562684E+02</pdfrwt>
<pdfrwt beam="2">  1        1 0.29422997E-01 0.20562684E+02</pdfrwt>
<totfact> 0.40052860E+04</totfact>
</mgrwt>
</event>
<event>
 4    1  0.2177230E+006  0.4339553E+02  0.7546771E-02  0.1484614E+00
          2   -1    0    0  503    0 -0.00000000000E+00  0.00000000000E+00  0.13327121575E+04  0.13327121575E+04  0.00000000000E+00 0.  1.
         21   -1    0    0  501  502  0.00000000000E+00 -0.00000000000E+00 -0.20019409124E+02  0.20019409124E+02  0.00000000000E+00 0. -1.
         21    1    1    2  503  502 -0.26068180445E+02  0.34693251692E+02  0.42874376980E+01  0.43606809866E+02  0.00000000000E+00 0. -1.
          2    1    1    2  501    0  0.26068180445E+02 -0.34693251692E+02  0.13084053106E+04  0.13091247567E+04  0.00000000000E+00 0.  1.
<mgrwt>
<rscale>  2 0.43395527E+02</rscale>
<asrwt>0</asrwt>
<pdfrwt beam="2">  1       21 0.30799101E-02 0.43395527E+02</pdfrwt>
<pdfrwt beam="1">  1        2 0.20503257E+00 0.43395527E+02</pdfrwt>
<totfact> 0.12736187E+05</totfact>
</mgrwt>
</event>
<event>
 4    1  0.2177230E+006  0.2858655E+02  0.7546771E-02  0.1614259E+00
         21   -1    0    0  501  502  0.00000000000E+00  0.00000000000E+00  0.17193703602E+02  0.17193703602E+02  0.00000000000E+00 0.  1.
          2   -1    0    0  503    0 -0.00000000000E+00 -0.00000000000E+00 -0.38799111550E+03  0.38799111550E+03  0.00000000000E+00 0. -1.
         21    1    1    2  503  502  0.95968940614E+01 -0.26927500754E+02  0.43797919638E+01  0.28920118432E+02  0.00000000000E+00 0.  1.
          2    1    1    2  501    0 -0.95968940614E+01  0.26927500754E+02 -0.37517720386E+03  0.37626470067E+03  0.00000000000E+00 0. -1.
<mgrwt>
<rscale>  2 0.28586547E+02</rscale>
<asrwt>0</asrwt>
<pdfrwt beam="1">  1       21 0.26451852E-02 0.28586547E+02</pdfrwt>
<pdfrwt beam="2">  1        2 0.59690940E-01 0.28586547E+02</pdfrwt>
<totfact> 0.65747404E+05</totfact>
</mgrwt>
</event>
<event>
 4    1  0.2177230E+006  0.2054360E+02  0.7546771E-02  0.1734729E+00
         21   -1    0    0  503  502  0.00000000000E+00  0.00000000000E+00  0.45909650457E+02  0.45909650457E+02  0.00000000000E+00 0. -1.
          3   -1    0    0  502    0 -0.00000000000E+00 -0.00000000000E+00 -0.24333165225E+02  0.24333165225E+02  0.00000000000E+00 0. -1.
         21    1    1    2  503  501 -0.20104770801E+02 -0.42234858656E+01  0.38492106833E+02  0.43631203631E+02  0.00000000000E+00 0. -1.
          3    1    1    2  501    0  0.20104770801E+02  0.42234858656E+01 -0.16915621601E+02  0.26611612051E+02  0.00000000000E+00 0. -1.
<mgrwt>
<rscale>  2 0.20543603E+02</rscale>
<asrwt>0</asrwt>
<pdfrwt beam="1">  1       21 0.70630231E-02 0.20543603E+02</pdfrwt>
<pdfrwt beam="2">  1        3 0.37435639E-02 0.20543603E+02</pdfrwt>
<totfact> 0.14996911E+06</totfact>
</mgrwt>
</event>
<event>
 4    1  0.2177230E+006  0.2132350E+02  0.7546771E-02  0.1720221E+00
         21   -1    0    0  501  502  0.00000000000E+00  0.00000000000E+00  0.36930308992E+01  0.36930308992E+01  0.00000000000E+00 0. -1.
         -1   -1    0    0    0  501 -0.00000000000E+00 -0.00000000000E+00 -0.34364230078E+03  0.34364230078E+03  0.00000000000E+00 0. -1.
         21    1    1    2  503  502  0.20744101503E+02 -0.49369986925E+01 -0.30854373396E+02  0.37505787032E+02  0.00000000000E+00 0. -1.
         -1    1    1    2    0  503 -0.20744101503E+02  0.49369986925E+01 -0.30909489648E+03  0.30982954465E+03  0.00000000000E+00 0. -1.
<mgrwt>
<rscale>  2 0.21323501E+02</rscale>
<asrwt>0</asrwt>
<pdfrwt beam="1">  1       21 0.56815814E-03 0.21323501E+02</pdfrwt>
<pdfrwt beam="2">  1       -1 0.52868089E-01 0.21323501E+02</pdfrwt>
<totfact> 0.21401708E+06</totfact>
</mgrwt>
</event>
<event>
 4    1  0.2177230E+006  0.2086010E+02  0.7546771E-02  0.1728746E+00
         -4   -1    0    0    0  501 -0.00000000000E+00  0.00000000000E+00  0.79418530005E+01  0.79418530005E+01  0.00000000000E+00 0.  1.
         21   -1    0    0  503  502  0.00000000000E+00 -0.00000000000E+00 -0.19633689328E+03  0.19633689328E+03  0.00000000000E+00 0.  1.
         21    1    1    2  503  501 -0.10295710824E+02 -0.18142269299E+02 -0.18092177403E+03  0.18212037754E+03  0.00000000000E+00 0.  1.
         -4    1    1    2    0  502  0.10295710824E+02  0.18142269299E+02 -0.74732662435E+01  0.22158368736E+02  0.00000000000E+00 0.  1.
<mgrwt>
<rscale>  2 0.20860096E+02</rscale>
<asrwt>0</asrwt>
<pdfrwt beam="2">  1       21 0.30205677E-01 0.20860096E+02</pdfrwt>
<pdfrwt beam="1">  1       -4 0.12218235E-02 0.20860096E+02</pdfrwt>
<totfact> 0.55776969E+05</totfact>
</mgrwt>
</event>
<event>
 4    1  0.2177230E+006  0.2032333E+02  0.7546771E-02  0.1738974E+00
          2   -1    0    0  502    0 -0.00000000000E+00  0.00000000000E+00  0.20188965598E+03  0.20188965598E+03  0.00000000000E+00 0.  1.
         21   -1    0    0  503  502  0.00000000000E+00 -0.00000000000E+00 -0.13048923258E+03  0.13048923258E+03  0.00000000000E+00 0.  1.
         21    1    1    2  503  501 -0.17009975172E+02  0.11121989970E+02 -0.12918129514E+03  0.13077019894E+03  0.00000000000E+00 0.  1.
          2    1    1    2  501    0  0.17009975172E+02 -0.11121989970E+02  0.20058171854E+03  0.20160868962E+03  0.00000000000E+00 0.  1.
<mgrwt>
<rscale>  2 0.20323334E+02</rscale>
<asrwt>0</asrwt>
<pdfrwt beam="2">  1       21 0.20075267E-01 0.20323334E+02</pdfrwt>
<pdfrwt beam="1">  1        2 0.31059947E-01 0.20323334E+02</pdfrwt>
<totfact> 0.44015730E+04</totfact>
</mgrwt>
</event>
<event>
 4    1  0.2177230E+006  0.3301768E+02  0.7546771E-02  0.1566943E+00
         -1   -1    0    0    0  501 -0.00000000000E+00  0.00000000000E+00  0.41978032437E+02  0.41978032437E+02  0.00000000000E+00 0.  1.
         21   -1    0    0  503  502  0.00000000000E+00 -0.00000000000E+00 -0.84304212574E+02  0.84304212574E+02  0.00000000000E+00 0. -1.
         21    1    1    2  503  501 -0.42983134309E+01 -0.32736700838E+02 -0.73686092597E+02  0.80745323842E+02  0.00000000000E+00 0. -1.
         -1    1    1    2    0  502  0.42983134309E+01  0.32736700838E+02  0.31359912460E+02  0.45536921170E+02  0.00000000000E+00 0.  1.
<mgrwt>
<rscale>  2 0.33017678E+02</rscale>
<asrwt>0</asrwt>
<pdfrwt beam="2">  1       21 0.12969879E-01 0.33017678E+02</pdfrwt>
<pdfrwt beam="1">  1       -1 0.64581589E-02 0.33017678E+02</pdfrwt>
<totfact> 0.44061202E+05</totfact>
</mgrwt>
</event>
<event>
 4    1  0.2177230E+006  0.3106427E+02  0.7546771E-02  0.1586614E+00
         21   -1    0    0  503  502  0.00000000000E+00  0.00000000000E+00  0.26618462388E+02  0.26618462388E+02  0.00000000000E+00 0.  1.
         -2   -1    0    0    0  501 -0.00000000000E+00 -0.00000000000E+00 -0.46007950160E+02  0.46007950160E+02  0.00000000000E+00 0. -1.
         21    1    1    2  503  501  0.30474553806E+02 -0.60241681992E+01  0.70265205669E+01  0.31849034890E+02  0.00000000000E+00 0.  1.
         -2    1    1    2    0  502 -0.30474553806E+02  0.60241681992E+01 -0.26416008338E+02  0.40777377658E+02  0.00000000000E+00 0. -1.
<mgrwt>
<rscale>  2 0.31064273E+02</rscale>
<asrwt>0</asrwt>
<pdfrwt beam="1">  1       21 0.40951481E-02 0.31064273E+02</pdfrwt>
<pdfrwt beam="2">  1       -2 0.70781462E-02 0.31064273E+02</pdfrwt>
<totfact> 0.24631550E+06</totfact>
</mgrwt>
</event>
<event>
 4    1  0.2177230E+006  0.2141326E+02  0.7546771E-02  0.1718601E+00
          2   -1    0    0  502    0 -0.00000000000E+00  0.00000000000E+00  0.94232888253E+03  0.94232888253E+03  0.00000000000E+00 0.  1.
         21   -1    0    0  503  502  0.00000000000E+00 -0.00000000000E+00 -0.16583324907E+02  0.16583324907E+02  0.00000000000E+00 0.  1.
         21    1    1    2  503  501  0.12812417166E+02 -0.17157202880E+02 -0.94968266538E+01  0.23424716877E+02  0.00000000000E+00 0.  1.
          2    1    1    2  501    0 -0.12812417166E+02  0.17157202880E+02  0.93524238428E+03  0.93548749056E+03  0.00000000000E+00 0.  1.
<mgrwt>
<rscale>  2 0.21413259E+02</rscale>
<asrwt>0</asrwt>
<pdfrwt beam="2">  1       21 0.25512815E-02 0.21413259E+02</pdfrwt>
<pdfrwt beam="1">  1        2 0.14497363E+00 0.21413259E+02</pdfrwt>
<totfact> 0.25888439E+05</totfact>
</mgrwt>
</event>
<event>
 4    1  0.2177230E+006  0.3148986E+02  0.7546771E-02  0.1582181E+00
          3   -1    0    0  503    0 -0.00000000000E+00  0.00000000000E+00  0.52092512497E+03  0.52092512497E+03  0.00000000000E+00 0.  1.
         21   -1    0    0  501  502  0.00000000000E+00 -0.00000000000E+00 -0.30451971727E+01  0.30451971727E+01  0.00000000000E+00 0. -1.
         21    1    1    2  503  502 -0.31321550031E+02 -0.32514743211E+01  0.98529286720E+02  0.10343902515E+03  0.00000000000E+00 0. -1.
          3    1    1    2  501    0  0.31321550031E+02  0.32514743211E+01  0.41935064108E+03  0.42053129700E+03  0.00000000000E+00 0.  1.
<mgrwt>
<rscale>  2 0.31489865E+02</rscale>
<asrwt>0</asrwt>
<pdfrwt beam="2">  1       21 0.46849229E-03 0.31489865E+02</pdfrwt>
<pdfrwt beam="1">  1        3 0.80142256E-01 0.31489865E+02</pdfrwt>
<totfact> 0.62270011E+05</totfact>
</mgrwt>
</event>
<event>
 4    1  0.2177230E+006  0.3669714E+02  0.7546771E-02  0.1534026E+00
         21   -1    0    0  501  502  0.00000000000E+00  0.00000000000E+00  0.31417036646E+02  0.31417036646E+02  0.00000000000E+00 0. -1.
         -1   -1    0    0    0  501 -0.00000000000E+00 -0.00000000000E+00 -0.60701793188E+02  0.60701793188E+02  0.00000000000E+00 0.  1.
         21    1    1    2  503  502 -0.17939604729E+02 -0.32013290934E+02  0.10325424859E+02  0.38122101369E+02  0.00000000000E+00 0. -1.
         -1    1    1    2    0  503  0.17939604729E+02  0.32013290934E+02 -0.39610181401E+02  0.53996728465E+02  0.00000000000E+00 0.  1.
<mgrwt>
<rscale>  2 0.36697142E+02</rscale>
<asrwt>0</asrwt>
<pdfrwt beam="1">  1       21 0.48333902E-02 0.36697142E+02</pdfrwt>
<pdfrwt beam="2">  1       -1 0.93387374E-02 0.36697142E+02</pdfrwt>
<totfact> 0.13548130E+06</totfact>
</mgrwt>
</event>
<event>
 4    1  0.2177230E+006  0.2326247E+02  0.7546771E-02  0.1687291E+00
          2   -1    0    0  503    0 -0.00000000000E+00  0.00000000000E+00  0.41335072561E+03  0.41335072561E+03  0.00000000000E+00 0.  1.
         21   -1    0    0  501  502  0.00000000000E+00 -0.00000000000E+00 -0.19353138054E+01  0.19353138054E+01  0.00000000000E+00 0. -1.
         21    1    1    2  503  502  0.88956503667E+01  0.21494410646E+02  0.87598945826E+02  0.90635079270E+02  0.00000000000E+00 0. -1.
          2    1    1    2  501    0 -0.88956503667E+01 -0.21494410646E+02  0.32381646598E+03  0.32465096014E+03  0.00000000000E+00 0.  1.
<mgrwt>
<rscale>  2 0.23262465E+02</rscale>
<asrwt>0</asrwt>
<pdfrwt beam="2">  1       21 0.29774091E-03 0.23262465E+02</pdfrwt>
<pdfrwt beam="1">  1        2 0.63592349E-01 0.23262465E+02</pdfrwt>
<totfact> 0.15791233E+07</totfact>
</mgrwt>
</event>
<event>
 4    1  0.2177230E+006  0.2208044E+02  0.7546771E-02  0.1706865E+00
          2   -1    0    0  503    0 -0.00000000000E+00  0.00000000000E+00  0.11119982421E+04  0.11119982421E+04  0.00000000000E+00 0. -1.
         21   -1    0    0  501  502  0.00000000000E+00 -0.00000000000E+00 -0.60907983477E+00  0.60907983477E+00  0.00000000000E+00 0. -1.
         21    1    1    2  503  502  0.18658403859E+02 -0.11807188358E+02  0.26124318377E+03  0.26217464942E+03  0.00000000000E+00 0. -1.
          2    1    1    2  501    0 -0.18658403859E+02  0.11807188358E+02  0.85014597847E+03  0.85043267250E+03  0.00000000000E+00 0. -1.
<mgrwt>
<rscale>  2 0.22080438E+02</rscale>
<asrwt>0</asrwt>
<pdfrwt beam="2">  1       21 0.93705480E-04 0.22080438E+02</pdfrwt>
<pdfrwt beam="1">  1        2 0.17107503E+00 0.22080438E+02</pdfrwt>
<totfact> 0.27612048E+07</totfact>
</mgrwt>
</event>
<event>
 4    1  0.2177230E+006  0.2033001E+02  0.7546771E-02  0.1738844E+00
          2   -1    0    0  503    0 -0.00000000000E+00  0.00000000000E+00  0.27714942847E+03  0.27714942847E+03  0.00000000000E+00 0.  1.
         21   -1    0    0  501  502  0.00000000000E+00 -0.00000000000E+00 -0.28699373882E+01  0.28699373882E+01  0.00000000000E+00 0.  1.
         21    1    1    2  503  502 -0.19693001013E+02 -0.50492440142E+01  0.40100136013E+02  0.44959204422E+02  0.00000000000E+00 0.  1.
          2    1    1    2  501    0  0.19693001013E+02  0.50492440142E+01  0.23417935507E+03  0.23506016143E+03  0.00000000000E+00 0.  1.
<mgrwt>
<rscale>  2 0.20330006E+02</rscale>
<asrwt>0</asrwt>
<pdfrwt beam="2">  1       21 0.44152905E-03 0.20330006E+02</pdfrwt>
<pdfrwt beam="1">  1        2 0.42638353E-01 0.20330006E+02</pdfrwt>
<totfact> 0.12642384E+07</totfact>
</mgrwt>
</event>
<event>
 4    1  0.2177230E+006  0.2481156E+02  0.7546771E-02  0.1663723E+00
         21   -1    0    0  501  502  0.00000000000E+00  0.00000000000E+00  0.75778328515E+00  0.75778328515E+00  0.00000000000E+00 0.  1.
          1   -1    0    0  503    0 -0.00000000000E+00 -0.00000000000E+00 -0.89176819771E+03  0.89176819771E+03  0.00000000000E+00 0.  1.
         21    1    1    2  503  502 -0.16416744083E+02  0.18603873521E+02 -0.31236090132E+03  0.31334477221E+03  0.00000000000E+00 0.  1.
          1    1    1    2  501    0  0.16416744083E+02 -0.18603873521E+02 -0.57864951310E+03  0.57918120879E+03  0.00000000000E+00 0.  1.
<mgrwt>
<rscale>  2 0.24811562E+02</rscale>
<asrwt>0</asrwt>
<pdfrwt beam="1">  1       21 0.11658116E-03 0.24811562E+02</pdfrwt>
<pdfrwt beam="2">  1        1 0.13719615E+00 0.24811562E+02</pdfrwt>
<totfact> 0.15756404E+07</totfact>
</mgrwt>
</event>
<event>
 4    1  0.2177230E+006  0.3703461E+02  0.7546771E-02  0.1531241E+00
          2   -1    0    0  503    0 -0.00000000000E+00  0.00000000000E+00  0.54599139297E+03  0.54599139297E+03  0.00000000000E+00 0.  1.
         21   -1    0    0  501  502  0.00000000000E+00 -0.00000000000E+00 -0.16030148691E+02  0.16030148691E+02  0.00000000000E+00 0. -1.
         21    1    1    2  503  502  0.73892283858E+01  0.36289970693E+02  0.69258763520E+01  0.37676656331E+02  0.00000000000E+00 0. -1.
          2    1    1    2  501    0 -0.73892283858E+01 -0.36289970693E+02  0.52303536793E+03  0.52434488533E+03  0.00000000000E+00 0.  1.
<mgrwt>
<rscale>  2 0.37034614E+02</rscale>
<asrwt>0</asrwt>
<pdfrwt beam="2">  1       21 0.24661771E-02 0.37034614E+02</pdfrwt>
<pdfrwt beam="1">  1        2 0.83998662E-01 0.37034614E+02</pdfrwt>
<totfact> 0.53687310E+05</totfact>
</mgrwt>
</event>
<event>
 4    1  0.2177230E+006  0.2570171E+02  0.7546771E-02  0.1651123E+00
         21   -1    0    0  501  502  0.00000000000E+00  0.00000000000E+00  0.42552018466E+01  0.42552018466E+01  0.00000000000E+00 0. -1.
          2   -1    0    0  503    0 -0.00000000000E+00 -0.00000000000E+00 -0.13092288781E+04  0.13092288781E+04  0.00000000000E+00 0. -1.
         21    1    1    2  503  502  0.24842620903E+02  0.65895524340E+01 -0.35909128801E+02  0.44159297389E+02  0.00000000000E+00 0. -1.
          2    1    1    2  501    0 -0.24842620903E+02 -0.65895524340E+01 -0.12690645474E+04  0.12693247825E+04  0.00000000000E+00 0. -1.
<mgrwt>
<rscale>  2 0.25701712E+02</rscale>
<asrwt>0</asrwt>
<pdfrwt beam="1">  1       21 0.65464646E-03 0.25701712E+02</pdfrwt>
<pdfrwt beam="2">  1        2 0.20141982E+00 0.25701712E+02</pdfrwt>
<totfact> 0.13474717E+06</totfact>
</mgrwt>
</event>
<event>
 4    1  0.2177230E+006  0.3016393E+02  0.7546771E-02  0.1596284E+00
          2   -1    0    0  502    0 -0.00000000000E+00  0.00000000000E+00  0.28811422335E+03  0.28811422335E+03  0.00000000000E+00 0. -1.
         21   -1    0    0  503  502  0.00000000000E+00 -0.00000000000E+00 -0.89220240700E+01  0.89220240700E+01  0.00000000000E+00 0. -1.
         21    1    1    2  503  501  0.10934265192E+01  0.30144107316E+02  0.20221781509E+02  0.36315055209E+02  0.00000000000E+00 0. -1.
          2    1    1    2  501    0 -0.10934265192E+01 -0.30144107316E+02  0.25897041778E+03  0.26072119222E+03  0.00000000000E+00 0. -1.
<mgrwt>
<rscale>  2 0.30163932E+02</rscale>
<asrwt>0</asrwt>
<pdfrwt beam="2">  1       21 0.13726193E-02 0.30163932E+02</pdfrwt>
<pdfrwt beam="1">  1        2 0.44325258E-01 0.30163932E+02</pdfrwt>
<totfact> 0.24623038E+06</totfact>
</mgrwt>
</event>
<event>
 4    1  0.2177230E+006  0.2155829E+02  0.7546771E-02  0.1716005E+00
          2   -1    0    0  503    0 -0.00000000000E+00  0.00000000000E+00  0.28981679228E+03  0.28981679228E+03  0.00000000000E+00 0.  1.
         21   -1    0    0  501  502  0.00000000000E+00 -0.00000000000E+00 -0.60403589347E+01  0.60403589347E+01  0.00000000000E+00 0.  1.
         21    1    1    2  503  502  0.20694072985E+02 -0.60427786174E+01  0.15107852873E+02  0.26325027038E+02  0.00000000000E+00 0.  1.
          2    1    1    2  501    0 -0.20694072985E+02  0.60427786174E+01  0.26866858047E+03  0.26953212417E+03  0.00000000000E+00 0.  1.
<mgrwt>
<rscale>  2 0.21558289E+02</rscale>
<asrwt>0</asrwt>
<pdfrwt beam="2">  1       21 0.92928621E-03 0.21558289E+02</pdfrwt>
<pdfrwt beam="1">  1        2 0.44587188E-01 0.21558289E+02</pdfrwt>
<totfact> 0.40899782E+06</totfact>
</mgrwt>
</event>
<event>
 4    1  0.2177230E+006  0.2110297E+02  0.7546771E-02  0.1724244E+00
         21   -1    0    0  501  502  0.00000000000E+00  0.00000000000E+00  0.29550644469E+02  0.29550644469E+02  0.00000000000E+00 0. -1.
         -2   -1    0    0    0  501 -0.00000000000E+00 -0.00000000000E+00 -0.44119460636E+02  0.44119460636E+02  0.00000000000E+00 0.  1.
         21    1    1    2  503  502  0.20978076109E+02 -0.22925642314E+01  0.22604729389E+02  0.30924251304E+02  0.00000000000E+00 0. -1.
         -2    1    1    2    0  503 -0.20978076109E+02  0.22925642314E+01 -0.37173545555E+02  0.42745853801E+02  0.00000000000E+00 0.  1.
<mgrwt>
<rscale>  2 0.21102974E+02</rscale>
<asrwt>0</asrwt>
<pdfrwt beam="1">  1       21 0.45462530E-02 0.21102974E+02</pdfrwt>
<pdfrwt beam="2">  1       -2 0.67876093E-02 0.21102974E+02</pdfrwt>
<totfact> 0.20107353E+06</totfact>
</mgrwt>
</event>
<event>
 4    1  0.2177230E+006  0.2317881E+02  0.7546771E-02  0.1688628E+00
         21   -1    0    0  501  502  0.00000000000E+00  0.00000000000E+00  0.26514445259E+01  0.26514445259E+01  0.00000000000E+00 0.  1.
          1   -1    0    0  503    0 -0.00000000000E+00 -0.00000000000E+00 -0.40495275404E+03  0.40495275404E+03  0.00000000000E+00 0.  1.
         21    1    1    2  503  502 -0.17190286304E+02 -0.15548357633E+02 -0.57094838942E+02  0.61620434940E+02  0.00000000000E+00 0.  1.
          1    1    1    2  501    0  0.17190286304E+02  0.15548357633E+02 -0.34520647057E+03  0.34598376363E+03  0.00000000000E+00 0.  1.
<mgrwt>
<rscale>  2 0.23178813E+02</rscale>
<asrwt>0</asrwt>
<pdfrwt beam="1">  1       21 0.40791451E-03 0.23178813E+02</pdfrwt>
<pdfrwt beam="2">  1        1 0.62300428E-01 0.23178813E+02</pdfrwt>
<totfact> 0.69089419E+06</totfact>
</mgrwt>
</event>
<event>
 4    1  0.2177230E+006  0.2209121E+02  0.7546771E-02  0.1706679E+00
          2   -1    0    0  503    0 -0.00000000000E+00  0.00000000000E+00  0.54285657479E+03  0.54285657479E+03  0.00000000000E+00 0.  1.
         21   -1    0    0  501  502  0.00000000000E+00 -0.00000000000E+00 -0.12650105921E+01  0.12650105921E+01  0.00000000000E+00 0. -1.
         21    1    1    2  503  502  0.14431102266E+01  0.22044025948E+02  0.12445252581E+03  0.12639799377E+03  0.00000000000E+00 0. -1.
          2    1    1    2  501    0 -0.14431102266E+01 -0.22044025948E+02  0.41713903838E+03  0.41772359161E+03  0.00000000000E+00 0.  1.
<mgrwt>
<rscale>  2 0.22091212E+02</rscale>
<asrwt>0</asrwt>
<pdfrwt beam="2">  1       21 0.19461745E-03 0.22091212E+02</pdfrwt>
<pdfrwt beam="1">  1        2 0.83516210E-01 0.22091212E+02</pdfrwt>
<totfact> 0.21908145E+07</totfact>
</mgrwt>
</event>
<event>
 4    1  0.2177230E+006  0.2341765E+02  0.7546771E-02  0.1684828E+00
          1   -1    0    0  502    0 -0.00000000000E+00  0.00000000000E+00  0.21726430838E+03  0.21726430838E+03  0.00000000000E+00 0. -1.
         21   -1    0    0  503  502  0.00000000000E+00 -0.00000000000E+00 -0.19087997009E+02  0.19087997009E+02  0.00000000000E+00 0.  1.
         21    1    1    2  503  501 -0.22282599609E+02 -0.72022194110E+01 -0.10997712091E+02  0.25871526454E+02  0.00000000000E+00 0.  1.
          1    1    1    2  501    0  0.22282599609E+02  0.72022194110E+01  0.20917402346E+03  0.21048077894E+03  0.00000000000E+00 0. -1.
<mgrwt>
<rscale>  2 0.23417647E+02</rscale>
<asrwt>0</asrwt>
<pdfrwt beam="2">  1       21 0.29366151E-02 0.23417647E+02</pdfrwt>
<pdfrwt beam="1">  1        1 0.33425276E-01 0.23417647E+02</pdfrwt>
<totfact> 0.72487899E+05</totfact>
</mgrwt>
</event>
<event>
 4    1  0.2177230E+006  0.2047509E+02  0.7546771E-02  0.1736042E+00
         -4   -1    0    0    0  501 -0.00000000000E+00  0.00000000000E+00  0.79133272888E+01  0.79133272888E+01  0.00000000000E+00 0. -1.
         21   -1    0    0  501  502  0.00000000000E+00 -0.00000000000E+00 -0.14328718274E+03  0.14328718274E+03  0.00000000000E+00 0. -1.
         21    1    1    2  503  502 -0.10912661992E+02  0.17324643130E+02 -0.12770560168E+03  0.12933657700E+03  0.00000000000E+00 0. -1.
         -4    1    1    2    0  503  0.10912661992E+02 -0.17324643130E+02 -0.76682537727E+01  0.21863933024E+02  0.00000000000E+00 0. -1.
<mgrwt>
<rscale>  2 0.20475093E+02</rscale>
<asrwt>0</asrwt>
<pdfrwt beam="2">  1       21 0.22044183E-01 0.20475093E+02</pdfrwt>
<pdfrwt beam="1">  1       -4 0.12174349E-02 0.20475093E+02</pdfrwt>
<totfact> 0.97521642E+05</totfact>
</mgrwt>
</event>
<event>
 4    1  0.2177230E+006  0.2241947E+02  0.7546771E-02  0.1701097E+00
         21   -1    0    0  503  502  0.00000000000E+00  0.00000000000E+00  0.84643573591E+00  0.84643573591E+00  0.00000000000E+00 0. -1.
         -2   -1    0    0    0  501 -0.00000000000E+00 -0.00000000000E+00 -0.86836015231E+03  0.86836015231E+03  0.00000000000E+00 0. -1.
         21    1    1    2  503  501  0.22340352165E+02 -0.18818911563E+01 -0.18938916950E+03  0.19071153708E+03  0.00000000000E+00 0. -1.
         -2    1    1    2    0  502 -0.22340352165E+02  0.18818911563E+01 -0.67812454707E+03  0.67849505097E+03  0.00000000000E+00 0. -1.
<mgrwt>
<rscale>  2 0.22419475E+02</rscale>
<asrwt>0</asrwt>
<pdfrwt beam="1">  1       21 0.13022084E-03 0.22419475E+02</pdfrwt>
<pdfrwt beam="2">  1       -2 0.13359392E+00 0.22419475E+02</pdfrwt>
<totfact> 0.20306693E+06</totfact>
</mgrwt>
</event>
<event>
 4    1  0.2177230E+006  0.3699578E+02  0.7546771E-02  0.1531560E+00
          2   -1    0    0  503    0 -0.00000000000E+00  0.00000000000E+00  0.20163454302E+03  0.20163454302E+03  0.00000000000E+00 0. -1.
         21   -1    0    0  501  502  0.00000000000E+00 -0.00000000000E+00 -0.20492343153E+02  0.20492343153E+02  0.00000000000E+00 0.  1.
         21    1    1    2  503  502 -0.29220696830E+02  0.22690063124E+02 -0.25381514633E+00  0.36996655388E+02  0.00000000000E+00 0.  1.
          2    1    1    2  501    0  0.29220696830E+02 -0.22690063124E+02  0.18139601501E+03  0.18513023079E+03  0.00000000000E+00 0. -1.
<mgrwt>
<rscale>  2 0.36995785E+02</rscale>
<asrwt>0</asrwt>
<pdfrwt beam="2">  1       21 0.31526683E-02 0.36995785E+02</pdfrwt>
<pdfrwt beam="1">  1        2 0.31020698E-01 0.36995785E+02</pdfrwt>
<totfact> 0.10045281E+06</totfact>
</mgrwt>
</event>
<event>
 4    1  0.2177230E+006  0.4047806E+02  0.7546771E-02  0.1504723E+00
         -2   -1    0    0    0  501 -0.00000000000E+00  0.00000000000E+00  0.33812256866E+03  0.33812256866E+03  0.00000000000E+00 0.  1.
         21   -1    0    0  501  502  0.00000000000E+00 -0.00000000000E+00 -0.10824585307E+02  0.10824585307E+02  0.00000000000E+00 0.  1.
         21    1    1    2  503  502 -0.37164053839E+02 -0.16040763261E+02  0.33981635348E+02  0.52850965220E+02  0.00000000000E+00 0.  1.
         -2    1    1    2    0  503  0.37164053839E+02  0.16040763261E+02  0.29331634800E+03  0.29609618874E+03  0.00000000000E+00 0.  1.
<mgrwt>
<rscale>  2 0.40478056E+02</rscale>
<asrwt>0</asrwt>
<pdfrwt beam="2">  1       21 0.16653211E-02 0.40478056E+02</pdfrwt>
<pdfrwt beam="1">  1       -2 0.52018849E-01 0.40478056E+02</pdfrwt>
<totfact> 0.39721993E+05</totfact>
</mgrwt>
</event>
<event>
 4    1  0.2177230E+006  0.2234538E+02  0.7546771E-02  0.1702346E+00
          3   -1    0    0  503    0 -0.00000000000E+00  0.00000000000E+00  0.24669399547E+02  0.24669399547E+02  0.00000000000E+00 0. -1.
         21   -1    0    0  501  502  0.00000000000E+00 -0.00000000000E+00 -0.20401757598E+02  0.20401757598E+02  0.00000000000E+00 0. -1.
         21    1    1    2  503  502 -0.20674594726E+02 -0.84780501641E+01  0.12909153693E+00  0.22345757233E+02  0.00000000000E+00 0. -1.
          3    1    1    2  501    0  0.20674594726E+02  0.84780501641E+01  0.41385504125E+01  0.22725399913E+02  0.00000000000E+00 0. -1.
<mgrwt>
<rscale>  2 0.22345384E+02</rscale>
<asrwt>0</asrwt>
<pdfrwt beam="2">  1       21 0.31387320E-02 0.22345384E+02</pdfrwt>
<pdfrwt beam="1">  1        3 0.37952922E-02 0.22345384E+02</pdfrwt>
<totfact> 0.54916638E+06</totfact>
</mgrwt>
</event>
<event>
 4    1  0.2177230E+006  0.2152333E+02  0.7546771E-02  0.1716629E+00
         21   -1    0    0  503  502  0.00000000000E+00  0.00000000000E+00  0.31673537586E+03  0.31673537586E+03  0.00000000000E+00 0. -1.
          1   -1    0    0  502    0 -0.00000000000E+00 -0.00000000000E+00 -0.11664817847E+02  0.11664817847E+02  0.00000000000E+00 0. -1.
         21    1    1    2  503  501 -0.21090105952E+02  0.42966210540E+01  0.30609664587E+03  0.30685242403E+03  0.00000000000E+00 0. -1.
          1    1    1    2  501    0  0.21090105952E+02 -0.42966210540E+01 -0.10260878601E+01  0.21547769672E+02  0.00000000000E+00 0. -1.
<mgrwt>
<rscale>  2 0.21523325E+02</rscale>
<asrwt>0</asrwt>
<pdfrwt beam="1">  1       21 0.48728513E-01 0.21523325E+02</pdfrwt>
<pdfrwt beam="2">  1        1 0.17945876E-02 0.21523325E+02</pdfrwt>
<totfact> 0.23500035E+05</totfact>
</mgrwt>
</event>
<event>
 4    1  0.2177230E+006  0.2401840E+02  0.7546771E-02  0.1675515E+00
         21   -1    0    0  501  502  0.00000000000E+00  0.00000000000E+00  0.84736752082E+02  0.84736752082E+02  0.00000000000E+00 0. -1.
          4   -1    0    0  503    0 -0.00000000000E+00 -0.00000000000E+00 -0.68434201653E+01  0.68434201653E+01  0.00000000000E+00 0. -1.
         21    1    1    2  503  502  0.21051067282E+02 -0.11564422850E+02  0.42243411097E+02  0.48594126092E+02  0.00000000000E+00 0. -1.
          4    1    1    2  501    0 -0.21051067282E+02  0.11564422850E+02  0.35649920820E+02  0.42986046155E+02  0.00000000000E+00 0. -1.
<mgrwt>
<rscale>  2 0.24018395E+02</rscale>
<asrwt>0</asrwt>
<pdfrwt beam="1">  1       21 0.13036423E-01 0.24018395E+02</pdfrwt>
<pdfrwt beam="2">  1        4 0.10528339E-02 0.24018395E+02</pdfrwt>
<totfact> 0.31744797E+06</totfact>
</mgrwt>
</event>
<event>
 4    1  0.2177230E+006  0.3654942E+02  0.7546771E-02  0.1535257E+00
          1   -1    0    0  502    0 -0.00000000000E+00  0.00000000000E+00  0.73961041038E+02  0.73961041038E+02  0.00000000000E+00 0.  1.
         21   -1    0    0  503  502  0.00000000000E+00 -0.00000000000E+00 -0.64231382957E+02  0.64231382957E+02  0.00000000000E+00 0.  1.
         21    1    1    2  503  501  0.30173123881E+02  0.20626263252E+02 -0.53716493969E+02  0.64971700492E+02  0.00000000000E+00 0.  1.
          1    1    1    2  501    0 -0.30173123881E+02 -0.20626263252E+02  0.63446152050E+02  0.73220723504E+02  0.00000000000E+00 0.  1.
<mgrwt>
<rscale>  2 0.36549421E+02</rscale>
<asrwt>0</asrwt>
<pdfrwt beam="2">  1       21 0.98817512E-02 0.36549421E+02</pdfrwt>
<pdfrwt beam="1">  1        1 0.11378622E-01 0.36549421E+02</pdfrwt>
<totfact> 0.40352185E+05</totfact>
</mgrwt>
</event>
<event>
 4    1  0.2177230E+006  0.2330362E+02  0.7546771E-02  0.1686635E+00
         -1   -1    0    0    0  501 -0.00000000000E+00  0.00000000000E+00  0.83516979210E+02  0.83516979210E+02  0.00000000000E+00 0. -1.
         21   -1    0    0  501  502  0.00000000000E+00 -0.00000000000E+00 -0.24294631688E+02  0.24294631688E+02  0.00000000000E+00 0. -1.
         21    1    1    2  503  502 -0.20507703347E+02 -0.11067654004E+02 -0.16520145693E+02  0.28565259940E+02  0.00000000000E+00 0. -1.
         -1    1    1    2    0  503  0.20507703347E+02  0.11067654004E+02  0.75742493215E+02  0.79246350958E+02  0.00000000000E+00 0. -1.
<mgrwt>
<rscale>  2 0.23303623E+02</rscale>
<asrwt>0</asrwt>
<pdfrwt beam="2">  1       21 0.37376357E-02 0.23303623E+02</pdfrwt>
<pdfrwt beam="1">  1       -1 0.12848766E-01 0.23303623E+02</pdfrwt>
<totfact> 0.11603207E+06</totfact>
</mgrwt>
</event>
<event>
 4    1  0.2177230E+006  0.2781181E+02  0.7546771E-02  0.1623617E+00
          2   -1    0    0  502    0 -0.00000000000E+00  0.00000000000E+00  0.40168760113E+03  0.40168760113E+03  0.00000000000E+00 0. -1.
         21   -1    0    0  503  502  0.00000000000E+00 -0.00000000000E+00 -0.81569049377E+02  0.81569049377E+02  0.00000000000E+00 0. -1.
         21    1    1    2  503  501 -0.62692125560E+01 -0.27096005075E+02 -0.78699930814E+02  0.83469609004E+02  0.00000000000E+00 0. -1.
          2    1    1    2  501    0  0.62692125560E+01  0.27096005075E+02  0.39881848257E+03  0.39978704150E+03  0.00000000000E+00 0. -1.
<mgrwt>
<rscale>  2 0.27811805E+02</rscale>
<asrwt>0</asrwt>
<pdfrwt beam="2">  1       21 0.12549085E-01 0.27811805E+02</pdfrwt>
<pdfrwt beam="1">  1        2 0.61798091E-01 0.27811805E+02</pdfrwt>
<totfact> 0.50857775E+04</totfact>
</mgrwt>
</event>
<event>
 4    1  0.2177230E+006  0.6677252E+02  0.7546771E-02  0.1371425E+00
          2   -1    0    0  503    0 -0.00000000000E+00  0.00000000000E+00  0.35709815274E+03  0.35709815274E+03  0.00000000000E+00 0. -1.
         21   -1    0    0  501  502  0.00000000000E+00 -0.00000000000E+00 -0.31972473713E+02  0.31972473713E+02  0.00000000000E+00 0. -1.
         21    1    1    2  503  502  0.65766019149E+02 -0.11549895986E+02  0.10689377627E+02  0.67622719304E+02  0.00000000000E+00 0. -1.
          2    1    1    2  501    0 -0.65766019149E+02  0.11549895986E+02  0.31443630140E+03  0.32144790715E+03  0.00000000000E+00 0. -1.
<mgrwt>
<rscale>  2 0.66772520E+02</rscale>
<asrwt>0</asrwt>
<pdfrwt beam="2">  1       21 0.49188424E-02 0.66772520E+02</pdfrwt>
<pdfrwt beam="1">  1        2 0.54938174E-01 0.66772520E+02</pdfrwt>
<totfact> 0.29160718E+05</totfact>
</mgrwt>
</event>
<event>
 4    1  0.2177230E+006  0.2213113E+02  0.7546771E-02  0.1705994E+00
          2   -1    0    0  503    0 -0.00000000000E+00  0.00000000000E+00  0.25094691691E+03  0.25094691691E+03  0.00000000000E+00 0. -1.
         21   -1    0    0  501  502  0.00000000000E+00 -0.00000000000E+00 -0.19584625879E+01  0.19584625879E+01  0.00000000000E+00 0. -1.
         21    1    1    2  503  502 -0.10439808074E+02  0.19514030223E+02  0.13189445002E+03  0.13373830010E+03  0.00000000000E+00 0. -1.
          2    1    1    2  501    0  0.10439808074E+02 -0.19514030223E+02  0.11709400430E+03  0.11916707940E+03  0.00000000000E+00 0. -1.
<mgrwt>
<rscale>  2 0.22131131E+02</rscale>
<asrwt>0</asrwt>
<pdfrwt beam="2">  1       21 0.30130214E-03 0.22131131E+02</pdfrwt>
<pdfrwt beam="1">  1        2 0.38607193E-01 0.22131131E+02</pdfrwt>
<totfact> 0.25000827E+07</totfact>
</mgrwt>
</event>
<event>
 4    1  0.2177230E+006  0.2873030E+02  0.7546771E-02  0.1612563E+00
         21   -1    0    0  501  502  0.00000000000E+00  0.00000000000E+00  0.41361354053E+01  0.41361354053E+01  0.00000000000E+00 0.  1.
          3   -1    0    0  503    0 -0.00000000000E+00 -0.00000000000E+00 -0.26894141574E+03  0.26894141574E+03  0.00000000000E+00 0.  1.
         21    1    1    2  503  502 -0.28207079876E+02 -0.54581115233E+01 -0.63055074978E+02  0.69291939048E+02  0.00000000000E+00 0.  1.
          3    1    1    2  501    0  0.28207079876E+02  0.54581115233E+01 -0.20175020535E+03  0.20378561210E+03  0.00000000000E+00 0.  1.
<mgrwt>
<rscale>  2 0.28730303E+02</rscale>
<asrwt>0</asrwt>
<pdfrwt beam="1">  1       21 0.63632843E-03 0.28730303E+02</pdfrwt>
<pdfrwt beam="2">  1        3 0.41375608E-01 0.28730303E+02</pdfrwt>
<totfact> 0.14080160E+06</totfact>
</mgrwt>
</event>
<event>
 4    1  0.2177230E+006  0.2120911E+02  0.7546771E-02  0.1722300E+00
         21   -1    0    0  501  502  0.00000000000E+00  0.00000000000E+00  0.92703111996E+01  0.92703111996E+01  0.00000000000E+00 0. -1.
         -2   -1    0    0    0  501 -0.00000000000E+00 -0.00000000000E+00 -0.11567384861E+03  0.11567384861E+03  0.00000000000E+00 0.  1.
         21    1    1    2  503  502 -0.13744369882E+02 -0.16152981520E+02 -0.56032971411E+01  0.21936805928E+02  0.00000000000E+00 0. -1.
         -2    1    1    2    0  503  0.13744369882E+02  0.16152981520E+02 -0.10080024027E+03  0.10300735388E+03  0.00000000000E+00 0.  1.
<mgrwt>
<rscale>  2 0.21209114E+02</rscale>
<asrwt>0</asrwt>
<pdfrwt beam="1">  1       21 0.14262016E-02 0.21209114E+02</pdfrwt>
<pdfrwt beam="2">  1       -2 0.17795978E-01 0.21209114E+02</pdfrwt>
<totfact> 0.28342135E+06</totfact>
</mgrwt>
</event>
<event>
 4    1  0.2177230E+006  0.2048797E+02  0.7546771E-02  0.1735795E+00
          1   -1    0    0  502    0 -0.00000000000E+00  0.00000000000E+00  0.10231151581E+04  0.10231151581E+04  0.00000000000E+00 0.  1.
         21   -1    0    0  503  502  0.00000000000E+00 -0.00000000000E+00 -0.85193048446E+00  0.85193048446E+00  0.00000000000E+00 0. -1.
         21    1    1    2  503  501 -0.18311141410E+02  0.91901637143E+01  0.14249668077E+03  0.14396201248E+03  0.00000000000E+00 0. -1.
          1    1    1    2  501    0  0.18311141410E+02 -0.91901637143E+01  0.87976654685E+03  0.88000507611E+03  0.00000000000E+00 0.  1.
<mgrwt>
<rscale>  2 0.20487972E+02</rscale>
<asrwt>0</asrwt>
<pdfrwt beam="2">  1       21 0.13106705E-03 0.20487972E+02</pdfrwt>
<pdfrwt beam="1">  1        1 0.15740135E+00 0.20487972E+02</pdfrwt>
<totfact> 0.10309680E+07</totfact>
</mgrwt>
</event>
<event>
 4    1  0.2177230E+006  0.2214767E+02  0.7546771E-02  0.1705711E+00
         21   -1    0    0  501  502  0.00000000000E+00  0.00000000000E+00  0.82755980849E+01  0.82755980849E+01  0.00000000000E+00 0. -1.
          2   -1    0    0  503    0 -0.00000000000E+00 -0.00000000000E+00 -0.15185905435E+04  0.15185905435E+04  0.00000000000E+00 0. -1.
         21    1    1    2  503  502 -0.16485904269E+02  0.14789666745E+02 -0.67716881662E+01  0.23159772076E+02  0.00000000000E+00 0. -1.
          2    1    1    2  501    0  0.16485904269E+02 -0.14789666745E+02 -0.15035432573E+04  0.15037063696E+04  0.00000000000E+00 0. -1.
<mgrwt>
<rscale>  2 0.22147670E+02</rscale>
<asrwt>0</asrwt>
<pdfrwt beam="1">  1       21 0.12731700E-02 0.22147670E+02</pdfrwt>
<pdfrwt beam="2">  1        2 0.23362912E+00 0.22147670E+02</pdfrwt>
<totfact> 0.38640899E+05</totfact>
</mgrwt>
</event>
<event>
 4    1  0.2177230E+006  0.3037304E+02  0.7546771E-02  0.1594001E+00
          2   -1    0    0  502    0 -0.00000000000E+00  0.00000000000E+00  0.37229229082E+02  0.37229229082E+02  0.00000000000E+00 0. -1.
         21   -1    0    0  503  502  0.00000000000E+00 -0.00000000000E+00 -0.96845298128E+02  0.96845298128E+02  0.00000000000E+00 0.  1.
         21    1    1    2  503  501 -0.27538479621E+02 -0.12812237148E+02 -0.87636496415E+02  0.92750616087E+02  0.00000000000E+00 0.  1.
          2    1    1    2  501    0  0.27538479621E+02  0.12812237148E+02  0.28020427368E+02  0.41323911123E+02  0.00000000000E+00 0. -1.
<mgrwt>
<rscale>  2 0.30373035E+02</rscale>
<asrwt>0</asrwt>
<pdfrwt beam="2">  1       21 0.14899277E-01 0.30373035E+02</pdfrwt>
<pdfrwt beam="1">  1        2 0.57275737E-02 0.30373035E+02</pdfrwt>
<totfact> 0.50994086E+05</totfact>
</mgrwt>
</event>
<event>
 4    1  0.2177230E+006  0.2709483E+02  0.7546771E-02  0.1632617E+00
         21   -1    0    0  501  502  0.00000000000E+00  0.00000000000E+00  0.29726486415E+01  0.29726486415E+01  0.00000000000E+00 0.  1.
          2   -1    0    0  503    0 -0.00000000000E+00 -0.00000000000E+00 -0.33144336373E+03  0.33144336373E+03  0.00000000000E+00 0.  1.
         21    1    1    2  503  502 -0.23829645831E+02  0.12894871237E+02 -0.79817527490E+02  0.84290968788E+02  0.00000000000E+00 0.  1.
          2    1    1    2  501    0  0.23829645831E+02 -0.12894871237E+02 -0.24865318760E+03  0.25012504358E+03  0.00000000000E+00 0.  1.
<mgrwt>
<rscale>  2 0.27094828E+02</rscale>
<asrwt>0</asrwt>
<pdfrwt beam="1">  1       21 0.45733037E-03 0.27094828E+02</pdfrwt>
<pdfrwt beam="2">  1        2 0.50991308E-01 0.27094828E+02</pdfrwt>
<totfact> 0.10909204E+07</totfact>
</mgrwt>
</event>
<event>
 4    1  0.2177230E+006  0.2675370E+02  0.7546771E-02  0.1637020E+00
         -2   -1    0    0    0  501 -0.00000000000E+00  0.00000000000E+00  0.23113451783E+03  0.23113451783E+03  0.00000000000E+00 0. -1.
         21   -1    0    0  501  502  0.00000000000E+00 -0.00000000000E+00 -0.77206024787E+01  0.77206024787E+01  0.00000000000E+00 0. -1.
         21    1    1    2  503  502 -0.10202756377E+02 -0.24731848887E+02  0.19283542616E+02  0.32979017615E+02  0.00000000000E+00 0. -1.
         -2    1    1    2    0  503  0.10202756377E+02  0.24731848887E+02  0.20413037274E+03  0.20587610269E+03  0.00000000000E+00 0. -1.
<mgrwt>
<rscale>  2 0.26753702E+02</rscale>
<asrwt>0</asrwt>
<pdfrwt beam="2">  1       21 0.11877852E-02 0.26753702E+02</pdfrwt>
<pdfrwt beam="1">  1       -2 0.35559151E-01 0.26753702E+02</pdfrwt>
<totfact> 0.12477991E+06</totfact>
</mgrwt>
</event>
<event>
 4    1  0.2177230E+006  0.2914267E+02  0.7546771E-02  0.1607763E+00
          2   -1    0    0  502    0 -0.00000000000E+00  0.00000000000E+00  0.72400165443E+03  0.72400165443E+03  0.00000000000E+00 0.  1.
         21   -1    0    0  503  502  0.00000000000E+00 -0.00000000000E+00 -0.58006922845E+01  0.58006922845E+01  0.00000000000E+00 0.  1.
         21    1    1    2  503  501  0.29932679330E+01 -0.28988544672E+02  0.33177565138E+02  0.44159327481E+02  0.00000000000E+00 0.  1.
          2    1    1    2  501    0 -0.29932679330E+01  0.28988544672E+02  0.68502339701E+03  0.68564301923E+03  0.00000000000E+00 0.  1.
<mgrwt>
<rscale>  2 0.29142673E+02</rscale>
<asrwt>0</asrwt>
<pdfrwt beam="2">  1       21 0.89241477E-03 0.29142673E+02</pdfrwt>
<pdfrwt beam="1">  1        2 0.11138480E+00 0.29142673E+02</pdfrwt>
<totfact> 0.18262936E+06</totfact>
</mgrwt>
</event>
<event>
 4    1  0.2177230E+006  0.5067358E+02  0.7546771E-02  0.1441742E+00
         21   -1    0    0  501  502  0.00000000000E+00  0.00000000000E+00  0.23572695574E+02  0.23572695574E+02  0.00000000000E+00 0.  1.
         -1   -1    0    0    0  501 -0.00000000000E+00 -0.00000000000E+00 -0.36388780599E+03  0.36388780599E+03  0.00000000000E+00 0.  1.
         21    1    1    2  503  502  0.44268778094E+02  0.24659413883E+02 -0.79965287639E+01  0.51300642095E+02  0.00000000000E+00 0.  1.
         -1    1    1    2    0  503 -0.44268778094E+02 -0.24659413883E+02 -0.33231858165E+03  0.33615985947E+03  0.00000000000E+00 0.  1.
<mgrwt>
<rscale>  2 0.50673577E+02</rscale>
<asrwt>0</asrwt>
<pdfrwt beam="1">  1       21 0.36265685E-02 0.50673577E+02</pdfrwt>
<pdfrwt beam="2">  1       -1 0.55982740E-01 0.50673577E+02</pdfrwt>
<totfact> 0.12976576E+05</totfact>
</mgrwt>
</event>
<event>
 4    1  0.2177230E+006  0.3090046E+02  0.7546771E-02  0.1588343E+00
          1   -1    0    0  502    0 -0.00000000000E+00  0.00000000000E+00  0.29039322612E+03  0.29039322612E+03  0.00000000000E+00 0.  1.
         21   -1    0    0  503  502  0.00000000000E+00 -0.00000000000E+00 -0.61319020219E+03  0.61319020219E+03  0.00000000000E+00 0. -1.
         21    1    1    2  503  501  0.67828054287E+01  0.30146843563E+02 -0.61197726048E+03  0.61275688978E+03  0.00000000000E+00 0. -1.
          1    1    1    2  501    0 -0.67828054287E+01 -0.30146843563E+02  0.28918028441E+03  0.29082653854E+03  0.00000000000E+00 0.  1.
<mgrwt>
<rscale>  2 0.30900463E+02</rscale>
<asrwt>0</asrwt>
<pdfrwt beam="2">  1       21 0.94336953E-01 0.30900463E+02</pdfrwt>
<pdfrwt beam="1">  1        1 0.44675881E-01 0.30900463E+02</pdfrwt>
<totfact> 0.11113516E+03</totfact>
</mgrwt>
</event>
<event>
 4    1  0.2177230E+006  0.3087219E+02  0.7546771E-02  0.1588643E+00
         21   -1    0    0  503  502  0.00000000000E+00  0.00000000000E+00  0.34201465097E+03  0.34201465097E+03  0.00000000000E+00 0. -1.
          1   -1    0    0  502    0 -0.00000000000E+00 -0.00000000000E+00 -0.74008034470E+02  0.74008034470E+02  0.00000000000E+00 0.  1.
         21    1    1    2  503  501 -0.30848101563E+02 -0.12193978256E+01  0.33806084274E+03  0.33946756206E+03  0.00000000000E+00 0. -1.
          1    1    1    2  501    0  0.30848101563E+02  0.12193978256E+01 -0.70054226239E+02  0.76555123376E+02  0.00000000000E+00 0.  1.
<mgrwt>
<rscale>  2 0.30872193E+02</rscale>
<asrwt>0</asrwt>
<pdfrwt beam="1">  1       21 0.52617638E-01 0.30872193E+02</pdfrwt>
<pdfrwt beam="2">  1        1 0.11385852E-01 0.30872193E+02</pdfrwt>
<totfact> 0.19346263E+04</totfact>
</mgrwt>
</event>
<event>
 4    1  0.2177230E+006  0.2309224E+02  0.7546771E-02  0.1690019E+00
          1   -1    0    0  503    0 -0.00000000000E+00  0.00000000000E+00  0.12521247607E+04  0.12521247607E+04  0.00000000000E+00 0.  1.
         21   -1    0    0  501  502  0.00000000000E+00 -0.00000000000E+00 -0.58776973573E+00  0.58776973573E+00  0.00000000000E+00 0.  1.
         21    1    1    2  503  502 -0.20889922636E+02 -0.98418938595E+01  0.29704492325E+03  0.29794116562E+03  0.00000000000E+00 0.  1.
          1    1    1    2  501    0  0.20889922636E+02  0.98418938595E+01  0.95449206772E+03  0.95477136482E+03  0.00000000000E+00 0.  1.
<mgrwt>
<rscale>  2 0.23092244E+02</rscale>
<asrwt>0</asrwt>
<pdfrwt beam="2">  1       21 0.90427115E-04 0.23092244E+02</pdfrwt>
<pdfrwt beam="1">  1        1 0.19263244E+00 0.23092244E+02</pdfrwt>
<totfact> 0.12870344E+07</totfact>
</mgrwt>
</event>
<event>
 4    1  0.2177230E+006  0.2464802E+02  0.7546771E-02  0.1666110E+00
         21   -1    0    0  501  502  0.00000000000E+00  0.00000000000E+00  0.63487153703E+01  0.63487153703E+01  0.00000000000E+00 0.  1.
          1   -1    0    0  503    0 -0.00000000000E+00 -0.00000000000E+00 -0.11322681114E+03  0.11322681114E+03  0.00000000000E+00 0.  1.
         21    1    1    2  503  502  0.22605416447E+02  0.98244688294E+01 -0.29911272692E+02  0.38758344580E+02  0.00000000000E+00 0.  1.
          1    1    1    2  501    0 -0.22605416447E+02 -0.98244688294E+01 -0.76966823082E+02  0.80817181935E+02  0.00000000000E+00 0.  1.
<mgrwt>
<rscale>  2 0.24648023E+02</rscale>
<asrwt>0</asrwt>
<pdfrwt beam="1">  1       21 0.97672551E-03 0.24648023E+02</pdfrwt>
<pdfrwt beam="2">  1        1 0.17419508E-01 0.24648023E+02</pdfrwt>
<totfact> 0.85263365E+06</totfact>
</mgrwt>
</event>
<event>
 4    1  0.2177230E+006  0.2785769E+02  0.7546771E-02  0.1623052E+00
         21   -1    0    0  503  502  0.00000000000E+00  0.00000000000E+00  0.47274853545E+02  0.47274853545E+02  0.00000000000E+00 0. -1.
          1   -1    0    0  502    0 -0.00000000000E+00 -0.00000000000E+00 -0.58775642646E+03  0.58775642646E+03  0.00000000000E+00 0. -1.
         21    1    1    2  503  501  0.22099853239E+02 -0.16960178331E+02  0.42809430923E+02  0.51075420098E+02  0.00000000000E+00 0. -1.
          1    1    1    2  501    0 -0.22099853239E+02  0.16960178331E+02 -0.58329100384E+03  0.58395585991E+03  0.00000000000E+00 0. -1.
<mgrwt>
<rscale>  2 0.27857695E+02</rscale>
<asrwt>0</asrwt>
<pdfrwt beam="1">  1       21 0.72730546E-02 0.27857695E+02</pdfrwt>
<pdfrwt beam="2">  1        1 0.90424063E-01 0.27857695E+02</pdfrwt>
<totfact> 0.53946066E+04</totfact>
</mgrwt>
</event>
<event>
 4    1  0.2177230E+006  0.2022499E+02  0.7546771E-02  0.1740891E+00
         -2   -1    0    0    0  501 -0.00000000000E+00  0.00000000000E+00  0.36536188475E+03  0.36536188475E+03  0.00000000000E+00 0.  1.
         21   -1    0    0  503  502  0.00000000000E+00 -0.00000000000E+00 -0.28895928891E+03  0.28895928891E+03  0.00000000000E+00 0.  1.
         21    1    1    2  503  501 -0.98503375929E+01 -0.17664115832E+02 -0.28832488053E+03  0.28903336636E+03  0.00000000000E+00 0.  1.
         -2    1    1    2    0  502  0.98503375929E+01  0.17664115832E+02  0.36472747638E+03  0.36528780730E+03  0.00000000000E+00 0.  1.
<mgrwt>
<rscale>  2 0.20224988E+02</rscale>
<asrwt>0</asrwt>
<pdfrwt beam="2">  1       21 0.44455275E-01 0.20224988E+02</pdfrwt>
<pdfrwt beam="1">  1       -2 0.56209521E-01 0.20224988E+02</pdfrwt>
<totfact> 0.13056400E+03</totfact>
</mgrwt>
</event>
<event>
 4    1  0.2177230E+006  0.2243511E+02  0.7546771E-02  0.1700834E+00
          2   -1    0    0  502    0 -0.00000000000E+00  0.00000000000E+00  0.46686125009E+03  0.46686125009E+03  0.00000000000E+00 0.  1.
         21   -1    0    0  503  502  0.00000000000E+00 -0.00000000000E+00 -0.14174092162E+01  0.14174092162E+01  0.00000000000E+00 0.  1.
         21    1    1    2  503  501  0.14201035008E+02 -0.17368498041E+02  0.11816812438E+03  0.12027900789E+03  0.00000000000E+00 0.  1.
          2    1    1    2  501    0 -0.14201035008E+02  0.17368498041E+02  0.34727571649E+03  0.34799965141E+03  0.00000000000E+00 0.  1.
<mgrwt>
<rscale>  2 0.22435109E+02</rscale>
<asrwt>0</asrwt>
<pdfrwt beam="2">  1       21 0.21806333E-03 0.22435109E+02</pdfrwt>
<pdfrwt beam="1">  1        2 0.71824685E-01 0.22435109E+02</pdfrwt>
<totfact> 0.21750989E+07</totfact>
</mgrwt>
</event>
<event>
 4    1  0.2177230E+006  0.2013542E+02  0.7546771E-02  0.1742648E+00
          2   -1    0    0  502    0 -0.00000000000E+00  0.00000000000E+00  0.10217518867E+02  0.10217518867E+02  0.00000000000E+00 0.  1.
         21   -1    0    0  503  502  0.00000000000E+00 -0.00000000000E+00 -0.73703578506E+02  0.73703578506E+02  0.00000000000E+00 0.  1.
         21    1    1    2  503  501 -0.19490063576E+02  0.50569445324E+01 -0.60252181461E+02  0.63527636797E+02  0.00000000000E+00 0.  1.
          2    1    1    2  501    0  0.19490063576E+02 -0.50569445324E+01 -0.32338781774E+01  0.20393460576E+02  0.00000000000E+00 0.  1.
<mgrwt>
<rscale>  2 0.20135423E+02</rscale>
<asrwt>0</asrwt>
<pdfrwt beam="2">  1       21 0.11339012E-01 0.20135423E+02</pdfrwt>
<pdfrwt beam="1">  1        2 0.15719260E-02 0.20135423E+02</pdfrwt>
<totfact> 0.37703829E+06</totfact>
</mgrwt>
</event>
<event>
 4    1  0.2177230E+006  0.2407695E+02  0.7546771E-02  0.1674625E+00
          2   -1    0    0  503    0 -0.00000000000E+00  0.00000000000E+00  0.11934069842E+04  0.11934069842E+04  0.00000000000E+00 0.  1.
         21   -1    0    0  501  502  0.00000000000E+00 -0.00000000000E+00 -0.19603317660E+01  0.19603317660E+01  0.00000000000E+00 0. -1.
         21    1    1    2  503  502  0.11938543000E+02 -0.20908627612E+02  0.77352243695E+02  0.81012771352E+02  0.00000000000E+00 0. -1.
          2    1    1    2  501    0 -0.11938543000E+02  0.20908627612E+02  0.11140944087E+04  0.11143545446E+04  0.00000000000E+00 0.  1.
<mgrwt>
<rscale>  2 0.24076950E+02</rscale>
<asrwt>0</asrwt>
<pdfrwt beam="2">  1       21 0.30159046E-03 0.24076950E+02</pdfrwt>
<pdfrwt beam="1">  1        2 0.18360049E+00 0.24076950E+02</pdfrwt>
<totfact> 0.47677821E+06</totfact>
</mgrwt>
</event>
<event>
 4    1  0.2177230E+006  0.4680442E+02  0.7546771E-02  0.1463381E+00
          1   -1    0    0  503    0 -0.00000000000E+00  0.00000000000E+00  0.54302826842E+03  0.54302826842E+03  0.00000000000E+00 0. -1.
         21   -1    0    0  501  502  0.00000000000E+00 -0.00000000000E+00 -0.47372648389E+01  0.47372648389E+01  0.00000000000E+00 0.  1.
         21    1    1    2  503  502 -0.46159808195E+02 -0.77411675668E+01  0.16363000799E+03  0.17019234144E+03  0.00000000000E+00 0.  1.
          1    1    1    2  501    0  0.46159808195E+02  0.77411675668E+01  0.37466099559E+03  0.37757319182E+03  0.00000000000E+00 0. -1.
<mgrwt>
<rscale>  2 0.46804418E+02</rscale>
<asrwt>0</asrwt>
<pdfrwt beam="2">  1       21 0.72881040E-03 0.46804418E+02</pdfrwt>
<pdfrwt beam="1">  1        1 0.83542761E-01 0.46804418E+02</pdfrwt>
<totfact> 0.23453699E+06</totfact>
</mgrwt>
</event>
<event>
 4    1  0.2177230E+006  0.2178674E+02  0.7546771E-02  0.1711967E+00
          1   -1    0    0  502    0 -0.00000000000E+00  0.00000000000E+00  0.48653288805E+03  0.48653288805E+03  0.00000000000E+00 0.  1.
         21   -1    0    0  503  502  0.00000000000E+00 -0.00000000000E+00 -0.25693941622E+02  0.25693941622E+02  0.00000000000E+00 0. -1.
         21    1    1    2  503  501  0.10624018605E+02 -0.19020837988E+02 -0.20784564155E+02  0.30110798000E+02  0.00000000000E+00 0. -1.
          1    1    1    2  501    0 -0.10624018605E+02  0.19020837988E+02  0.48162351058E+03  0.48211603167E+03  0.00000000000E+00 0.  1.
<mgrwt>
<rscale>  2 0.21786740E+02</rscale>
<asrwt>0</asrwt>
<pdfrwt beam="2">  1       21 0.39529145E-02 0.21786740E+02</pdfrwt>
<pdfrwt beam="1">  1        1 0.74851207E-01 0.21786740E+02</pdfrwt>
<totfact> 0.17641760E+05</totfact>
</mgrwt>
</event>
<event>
 4    1  0.2177230E+006  0.3460493E+02  0.7546771E-02  0.1552137E+00
         21   -1    0    0  503  502  0.00000000000E+00  0.00000000000E+00  0.17402677263E+03  0.17402677263E+03  0.00000000000E+00 0. -1.
         -4   -1    0    0    0  501 -0.00000000000E+00 -0.00000000000E+00 -0.12414736226E+02  0.12414736226E+02  0.00000000000E+00 0.  1.
         21    1    1    2  503  501 -0.10180413684E+02 -0.33073555508E+02  0.14304292204E+03  0.14716921703E+03  0.00000000000E+00 0. -1.
         -4    1    1    2    0  502  0.10180413684E+02  0.33073555508E+02  0.18569114364E+02  0.39272291822E+02  0.00000000000E+00 0.  1.
<mgrwt>
<rscale>  2 0.34604926E+02</rscale>
<asrwt>0</asrwt>
<pdfrwt beam="1">  1       21 0.26773348E-01 0.34604926E+02</pdfrwt>
<pdfrwt beam="2">  1       -4 0.19099596E-02 0.34604926E+02</pdfrwt>
<totfact> 0.42879481E+05</totfact>
</mgrwt>
</event>
<event>
 4    1  0.2177230E+006  0.3216839E+02  0.7546771E-02  0.1575287E+00
         21   -1    0    0  503  502  0.00000000000E+00  0.00000000000E+00  0.11075933025E+03  0.11075933025E+03  0.00000000000E+00 0. -1.
         -1   -1    0    0    0  501 -0.00000000000E+00 -0.00000000000E+00 -0.20896975538E+02  0.20896975538E+02  0.00000000000E+00 0.  1.
         21    1    1    2  503  501  0.18823002384E+02 -0.26086395621E+02  0.93879621527E+02  0.99238041059E+02  0.00000000000E+00 0. -1.
         -1    1    1    2    0  502 -0.18823002384E+02  0.26086395621E+02 -0.40172668155E+01  0.32418264727E+02  0.00000000000E+00 0.  1.
<mgrwt>
<rscale>  2 0.32168392E+02</rscale>
<asrwt>0</asrwt>
<pdfrwt beam="1">  1       21 0.17039897E-01 0.32168392E+02</pdfrwt>
<pdfrwt beam="2">  1       -1 0.32149194E-02 0.32168392E+02</pdfrwt>
<totfact> 0.73326815E+05</totfact>
</mgrwt>
</event>
<event>
 4    1  0.2177230E+006  0.2577350E+02  0.7546771E-02  0.1650134E+00
         21   -1    0    0  503  502  0.00000000000E+00  0.00000000000E+00  0.18586513689E+03  0.18586513689E+03  0.00000000000E+00 0. -1.
          1   -1    0    0  502    0 -0.00000000000E+00 -0.00000000000E+00 -0.11347241517E+03  0.11347241517E+03  0.00000000000E+00 0.  1.
         21    1    1    2  503  501  0.10388751059E+01  0.25752556523E+02  0.18348927807E+03  0.18529055183E+03  0.00000000000E+00 0. -1.
          1    1    1    2  501    0 -0.10388751059E+01 -0.25752556523E+02 -0.11109655635E+03  0.11404700023E+03  0.00000000000E+00 0.  1.
<mgrwt>
<rscale>  2 0.25773502E+02</rscale>
<asrwt>0</asrwt>
<pdfrwt beam="1">  1       21 0.28594636E-01 0.25773502E+02</pdfrwt>
<pdfrwt beam="2">  1        1 0.17457295E-01 0.25773502E+02</pdfrwt>
<totfact> 0.36015976E+04</totfact>
</mgrwt>
</event>
<event>
 4    1  0.2177230E+006  0.3334024E+02  0.7546771E-02  0.1563854E+00
         -2   -1    0    0    0  501 -0.00000000000E+00  0.00000000000E+00  0.76511224174E+02  0.76511224174E+02  0.00000000000E+00 0.  1.
         21   -1    0    0  503  502  0.00000000000E+00 -0.00000000000E+00 -0.19192506283E+02  0.19192506283E+02  0.00000000000E+00 0.  1.
         21    1    1    2  503  501 -0.31926548118E+02 -0.96055832518E+01  0.50694783911E+01  0.33723453493E+02  0.00000000000E+00 0.  1.
         -2    1    1    2    0  502  0.31926548118E+02  0.96055832518E+01  0.52249239500E+02  0.61980276965E+02  0.00000000000E+00 0.  1.
<mgrwt>
<rscale>  2 0.33340242E+02</rscale>
<asrwt>0</asrwt>
<pdfrwt beam="2">  1       21 0.29526933E-02 0.33340242E+02</pdfrwt>
<pdfrwt beam="1">  1       -2 0.11770957E-01 0.33340242E+02</pdfrwt>
<totfact> 0.19641305E+06</totfact>
</mgrwt>
</event>
<event>
 4    1  0.2177230E+006  0.2042705E+02  0.7546771E-02  0.1736967E+00
         21   -1    0    0  503  502  0.00000000000E+00  0.00000000000E+00  0.15333258502E+01  0.15333258502E+01  0.00000000000E+00 0.  1.
          1   -1    0    0  502    0 -0.00000000000E+00 -0.00000000000E+00 -0.56437508224E+03  0.56437508224E+03  0.00000000000E+00 0. -1.
         21    1    1    2  503  501  0.46425715747E+01  0.19892488269E+02 -0.77807855034E+02  0.80444557711E+02  0.00000000000E+00 0.  1.
          1    1    1    2  501    0 -0.46425715747E+01 -0.19892488269E+02 -0.48503390136E+03  0.48546385038E+03  0.00000000000E+00 0. -1.
<mgrwt>
<rscale>  2 0.20427055E+02</rscale>
<asrwt>0</asrwt>
<pdfrwt beam="1">  1       21 0.23589625E-03 0.20427055E+02</pdfrwt>
<pdfrwt beam="2">  1        1 0.86826949E-01 0.20427055E+02</pdfrwt>
<totfact> 0.99648720E+06</totfact>
</mgrwt>
</event>
<event>
 4    1  0.2177230E+006  0.3002883E+02  0.7546771E-02  0.1597770E+00
          2   -1    0    0  502    0 -0.00000000000E+00  0.00000000000E+00  0.14668672226E+04  0.14668672226E+04  0.00000000000E+00 0.  1.
         21   -1    0    0  503  502  0.00000000000E+00 -0.00000000000E+00 -0.67660171526E+00  0.67660171526E+00  0.00000000000E+00 0. -1.
         21    1    1    2  503  501 -0.12402459365E+02  0.27347940457E+02  0.51120818611E+03  0.51208938711E+03  0.00000000000E+00 0. -1.
          2    1    1    2  501    0  0.12402459365E+02 -0.27347940457E+02  0.95498243476E+03  0.95545443719E+03  0.00000000000E+00 0.  1.
<mgrwt>
<rscale>  2 0.30028834E+02</rscale>
<asrwt>0</asrwt>
<pdfrwt beam="2">  1       21 0.10409375E-03 0.30028834E+02</pdfrwt>
<pdfrwt beam="1">  1        2 0.22566934E+00 0.30028834E+02</pdfrwt>
<totfact> 0.17098671E+07</totfact>
</mgrwt>
</event>
<event>
 4    1  0.2177230E+006  0.2628710E+02  0.7546771E-02  0.1643175E+00
          4   -1    0    0  502    0 -0.00000000000E+00  0.00000000000E+00  0.76188977917E+02  0.76188977917E+02  0.00000000000E+00 0. -1.
         21   -1    0    0  503  502  0.00000000000E+00 -0.00000000000E+00 -0.10867280606E+02  0.10867280606E+02  0.00000000000E+00 0. -1.
         21    1    1    2  503  501  0.26037167751E+02  0.36162890201E+01  0.14957599100E+02  0.30244692454E+02  0.00000000000E+00 0. -1.
          4    1    1    2  501    0 -0.26037167751E+02 -0.36162890201E+01  0.50364098211E+02  0.56811566070E+02  0.00000000000E+00 0. -1.
<mgrwt>
<rscale>  2 0.26287100E+02</rscale>
<asrwt>0</asrwt>
<pdfrwt beam="2">  1       21 0.16718894E-02 0.26287100E+02</pdfrwt>
<pdfrwt beam="1">  1        4 0.11721381E-01 0.26287100E+02</pdfrwt>
<totfact> 0.22535339E+06</totfact>
</mgrwt>
</event>
<event>
 4    1  0.2177230E+006  0.2568250E+02  0.7546771E-02  0.1651388E+00
         21   -1    0    0  501  502  0.00000000000E+00  0.00000000000E+00  0.98786163669E+01  0.98786163669E+01  0.00000000000E+00 0.  1.
          4   -1    0    0  503    0 -0.00000000000E+00 -0.00000000000E+00 -0.84469394039E+02  0.84469394039E+02  0.00000000000E+00 0. -1.
         21    1    1    2  503  502  0.25080192754E+02 -0.55294354432E+01 -0.15701153184E+02  0.30101776297E+02  0.00000000000E+00 0.  1.
          4    1    1    2  501    0 -0.25080192754E+02  0.55294354432E+01 -0.58889624488E+02  0.64246234109E+02  0.00000000000E+00 0. -1.
<mgrwt>
<rscale>  2 0.25682498E+02</rscale>
<asrwt>0</asrwt>
<pdfrwt beam="1">  1       21 0.15197871E-02 0.25682498E+02</pdfrwt>
<pdfrwt beam="2">  1        4 0.12995291E-01 0.25682498E+02</pdfrwt>
<totfact> 0.21795903E+06</totfact>
</mgrwt>
</event>
<event>
 4    1  0.2177230E+006  0.2853296E+02  0.7546771E-02  0.1614895E+00
         21   -1    0    0  503  502  0.00000000000E+00  0.00000000000E+00  0.42239511194E+01  0.42239511194E+01  0.00000000000E+00 0.  1.
          2   -1    0    0  502    0 -0.00000000000E+00 -0.00000000000E+00 -0.16881505810E+04  0.16881505810E+04  0.00000000000E+00 0. -1.
         21    1    1    2  503  501 -0.81076713918E+01  0.27356819661E+02 -0.45545571612E+02  0.53745037081E+02  0.00000000000E+00 0.  1.
          2    1    1    2  501    0  0.81076713918E+01 -0.27356819661E+02 -0.16383810582E+04  0.16386294950E+04  0.00000000000E+00 0. -1.
<mgrwt>
<rscale>  2 0.28532962E+02</rscale>
<asrwt>0</asrwt>
<pdfrwt beam="1">  1       21 0.64983789E-03 0.28532962E+02</pdfrwt>
<pdfrwt beam="2">  1        2 0.25971577E+00 0.28532962E+02</pdfrwt>
<totfact> 0.91039631E+05</totfact>
</mgrwt>
</event>
<event>
 4    1  0.2177230E+006  0.3974108E+02  0.7546771E-02  0.1510126E+00
         21   -1    0    0  501  502  0.00000000000E+00  0.00000000000E+00  0.12615866083E+01  0.12615866083E+01  0.00000000000E+00 0. -1.
          1   -1    0    0  503    0 -0.00000000000E+00 -0.00000000000E+00 -0.22733376950E+04  0.22733376950E+04  0.00000000000E+00 0.  1.
         21    1    1    2  503  502  0.29314416641E+02  0.26833157223E+02 -0.37368981241E+03  0.37579705859E+03  0.00000000000E+00 0. -1.
          1    1    1    2  501    0 -0.29314416641E+02 -0.26833157223E+02 -0.18983862959E+04  0.18988022230E+04  0.00000000000E+00 0.  1.
<mgrwt>
<rscale>  2 0.39741079E+02</rscale>
<asrwt>0</asrwt>
<pdfrwt beam="1">  1       21 0.19408912E-03 0.39741079E+02</pdfrwt>
<pdfrwt beam="2">  1        1 0.34974629E+00 0.39741079E+02</pdfrwt>
<totfact> 0.11281702E+06</totfact>
</mgrwt>
</event>
<event>
 4    1  0.2177230E+006  0.2182335E+02  0.7546771E-02  0.1711325E+00
          1   -1    0    0  502    0 -0.00000000000E+00  0.00000000000E+00  0.74168832299E+03  0.74168832299E+03  0.00000000000E+00 0.  1.
         21   -1    0    0  503  502  0.00000000000E+00 -0.00000000000E+00 -0.26081609324E+01  0.26081609324E+01  0.00000000000E+00 0. -1.
         21    1    1    2  503  501  0.14059799365E+02 -0.16690734803E+02  0.46434685113E+02  0.51307295465E+02  0.00000000000E+00 0. -1.
          1    1    1    2  501    0 -0.14059799365E+02  0.16690734803E+02  0.69264547694E+03  0.69298918845E+03  0.00000000000E+00 0.  1.
<mgrwt>
<rscale>  2 0.21823350E+02</rscale>
<asrwt>0</asrwt>
<pdfrwt beam="2">  1       21 0.40125612E-03 0.21823350E+02</pdfrwt>
<pdfrwt beam="1">  1        1 0.11410573E+00 0.21823350E+02</pdfrwt>
<totfact> 0.33022874E+06</totfact>
</mgrwt>
</event>
<event>
 4    1  0.2177230E+006  0.2578879E+02  0.7546771E-02  0.1649924E+00
          1   -1    0    0  503    0 -0.00000000000E+00  0.00000000000E+00  0.45431248058E+03  0.45431248058E+03  0.00000000000E+00 0. -1.
         21   -1    0    0  501  502  0.00000000000E+00 -0.00000000000E+00 -0.47648979340E+01  0.47648979340E+01  0.00000000000E+00 0.  1.
         21    1    1    2  503  502  0.85155975853E+01 -0.24342269525E+02  0.33721314977E+02  0.42452191600E+02  0.00000000000E+00 0.  1.
          1    1    1    2  501    0 -0.85155975853E+01  0.24342269525E+02  0.41582626767E+03  0.41662518691E+03  0.00000000000E+00 0. -1.
<mgrwt>
<rscale>  2 0.25788786E+02</rscale>
<asrwt>0</asrwt>
<pdfrwt beam="2">  1       21 0.73306158E-03 0.25788786E+02</pdfrwt>
<pdfrwt beam="1">  1        1 0.69894193E-01 0.25788786E+02</pdfrwt>
<totfact> 0.25960733E+06</totfact>
</mgrwt>
</event>
<event>
 4    1  0.2177230E+006  0.2203537E+02  0.7546771E-02  0.1707641E+00
          2   -1    0    0  502    0 -0.00000000000E+00  0.00000000000E+00  0.67388260998E+03  0.67388260998E+03  0.00000000000E+00 0.  1.
         21   -1    0    0  503  502  0.00000000000E+00 -0.00000000000E+00 -0.42239864710E+02  0.42239864710E+02  0.00000000000E+00 0.  1.
         21    1    1    2  503  501 -0.58748489425E+01 -0.21237788885E+02 -0.39172783538E+02  0.44945127622E+02  0.00000000000E+00 0.  1.
          2    1    1    2  501    0  0.58748489425E+01  0.21237788885E+02  0.67081552880E+03  0.67117734706E+03  0.00000000000E+00 0.  1.
<mgrwt>
<rscale>  2 0.22035370E+02</rscale>
<asrwt>0</asrwt>
<pdfrwt beam="2">  1       21 0.64984412E-02 0.22035370E+02</pdfrwt>
<pdfrwt beam="1">  1        2 0.10367424E+00 0.22035370E+02</pdfrwt>
<totfact> 0.87042394E+04</totfact>
</mgrwt>
</event>
<event>
 4    1  0.2177230E+006  0.2047939E+02  0.7546771E-02  0.1735959E+00
          2   -1    0    0  503    0 -0.00000000000E+00  0.00000000000E+00  0.56417702661E+03  0.56417702661E+03  0.00000000000E+00 0. -1.
         21   -1    0    0  501  502  0.00000000000E+00 -0.00000000000E+00 -0.65950477868E+03  0.65950477868E+03  0.00000000000E+00 0.  1.
         21    1    1    2  503  502  0.14550074773E+02  0.14411832794E+02 -0.65915984799E+03  0.65947790775E+03  0.00000000000E+00 0.  1.
          2    1    1    2  501    0 -0.14550074773E+02 -0.14411832794E+02  0.56383209592E+03  0.56420389753E+03  0.00000000000E+00 0. -1.
<mgrwt>
<rscale>  2 0.20479395E+02</rscale>
<asrwt>0</asrwt>
<pdfrwt beam="2">  1       21 0.10146227E+00 0.20479395E+02</pdfrwt>
<pdfrwt beam="1">  1        2 0.86796466E-01 0.20479395E+02</pdfrwt>
<totfact> 0.70624356E+02</totfact>
</mgrwt>
</event>
<event>
 4    1  0.2177230E+006  0.2882792E+02  0.7546771E-02  0.1611418E+00
          1   -1    0    0  503    0 -0.00000000000E+00  0.00000000000E+00  0.28098020182E+02  0.28098020182E+02  0.00000000000E+00 0.  1.
         21   -1    0    0  501  502  0.00000000000E+00 -0.00000000000E+00 -0.81551422352E+02  0.81551422352E+02  0.00000000000E+00 0. -1.
         21    1    1    2  503  502 -0.50169224725E+01 -0.28388017421E+02 -0.70494671157E+02  0.76161326838E+02  0.00000000000E+00 0. -1.
          1    1    1    2  501    0  0.50169224725E+01  0.28388017421E+02  0.17041268987E+02  0.33488115696E+02  0.00000000000E+00 0.  1.
<mgrwt>
<rscale>  2 0.28827921E+02</rscale>
<asrwt>0</asrwt>
<pdfrwt beam="2">  1       21 0.12546373E-01 0.28827921E+02</pdfrwt>
<pdfrwt beam="1">  1        1 0.43227724E-02 0.28827921E+02</pdfrwt>
<totfact> 0.89742671E+05</totfact>
</mgrwt>
</event>
<event>
 4    1  0.2177230E+006  0.4325498E+02  0.7546771E-02  0.1485539E+00
         21   -1    0    0  501  502  0.00000000000E+00  0.00000000000E+00  0.14296748032E+02  0.14296748032E+02  0.00000000000E+00 0.  1.
          2   -1    0    0  503    0 -0.00000000000E+00 -0.00000000000E+00 -0.13493182557E+04  0.13493182557E+04  0.00000000000E+00 0. -1.
         21    1    1    2  503  502  0.39300741786E+02 -0.18067776898E+02 -0.19610121709E+02  0.47492628274E+02  0.00000000000E+00 0.  1.
          2    1    1    2  501    0 -0.39300741786E+02  0.18067776898E+02 -0.13154113860E+04  0.13161223755E+04  0.00000000000E+00 0. -1.
<mgrwt>
<rscale>  2 0.43254975E+02</rscale>
<asrwt>0</asrwt>
<pdfrwt beam="1">  1       21 0.21994998E-02 0.43254975E+02</pdfrwt>
<pdfrwt beam="2">  1        2 0.20758741E+00 0.43254975E+02</pdfrwt>
<totfact> 0.21284580E+05</totfact>
</mgrwt>
</event>
<event>
 4    1  0.2177230E+006  0.2194235E+02  0.7546771E-02  0.1709251E+00
         -3   -1    0    0    0  501 -0.00000000000E+00  0.00000000000E+00  0.85067816671E+02  0.85067816671E+02  0.00000000000E+00 0.  1.
         21   -1    0    0  503  502  0.00000000000E+00 -0.00000000000E+00 -0.40438126851E+02  0.40438126851E+02  0.00000000000E+00 0.  1.
         21    1    1    2  503  501  0.19454928983E+02 -0.10147544937E+02 -0.35881152663E+02  0.42058578749E+02  0.00000000000E+00 0.  1.
         -3    1    1    2    0  502 -0.19454928983E+02  0.10147544937E+02  0.80510842484E+02  0.83447364772E+02  0.00000000000E+00 0.  1.
<mgrwt>
<rscale>  2 0.21942355E+02</rscale>
<asrwt>0</asrwt>
<pdfrwt beam="2">  1       21 0.62212503E-02 0.21942355E+02</pdfrwt>
<pdfrwt beam="1">  1       -3 0.13087356E-01 0.21942355E+02</pdfrwt>
<totfact> 0.27598844E+05</totfact>
</mgrwt>
</event>
<event>
 4    1  0.2177230E+006  0.2647164E+02  0.7546771E-02  0.1640722E+00
         21   -1    0    0  501  502  0.00000000000E+00  0.00000000000E+00  0.71614174316E+01  0.71614174316E+01  0.00000000000E+00 0. -1.
         -2   -1    0    0    0  501 -0.00000000000E+00 -0.00000000000E+00 -0.21839679984E+03  0.21839679984E+03  0.00000000000E+00 0. -1.
         21    1    1    2  503  502  0.16252974325E+02 -0.20894705405E+02 -0.21829548768E+02  0.34311471664E+02  0.00000000000E+00 0. -1.
         -2    1    1    2    0  503 -0.16252974325E+02  0.20894705405E+02 -0.18940583364E+03  0.19124674561E+03  0.00000000000E+00 0. -1.
<mgrwt>
<rscale>  2 0.26471643E+02</rscale>
<asrwt>0</asrwt>
<pdfrwt beam="1">  1       21 0.11017565E-02 0.26471643E+02</pdfrwt>
<pdfrwt beam="2">  1       -2 0.33599510E-01 0.26471643E+02</pdfrwt>
<totfact> 0.15420805E+06</totfact>
</mgrwt>
</event>
<event>
 4    1  0.2177230E+006  0.2468005E+02  0.7546771E-02  0.1665640E+00
         -2   -1    0    0    0  501 -0.00000000000E+00  0.00000000000E+00  0.98519367569E+02  0.98519367569E+02  0.00000000000E+00 0. -1.
         21   -1    0    0  501  502  0.00000000000E+00 -0.00000000000E+00 -0.12265762339E+02  0.12265762339E+02  0.00000000000E+00 0. -1.
         21    1    1    2  503  502  0.76832097994E+01  0.23453643277E+02  0.41174110649E+01  0.25021154443E+02  0.00000000000E+00 0. -1.
         -2    1    1    2    0  503 -0.76832097994E+01 -0.23453643277E+02  0.82136194165E+02  0.85763975465E+02  0.00000000000E+00 0. -1.
<mgrwt>
<rscale>  2 0.24680055E+02</rscale>
<asrwt>0</asrwt>
<pdfrwt beam="2">  1       21 0.18870404E-02 0.24680055E+02</pdfrwt>
<pdfrwt beam="1">  1       -2 0.15156825E-01 0.24680055E+02</pdfrwt>
<totfact> 0.24811764E+06</totfact>
</mgrwt>
</event>
<event>
 4    1  0.2177230E+006  0.2636451E+02  0.7546771E-02  0.1642143E+00
          2   -1    0    0  503    0 -0.00000000000E+00  0.00000000000E+00  0.88123902887E+03  0.88123902887E+03  0.00000000000E+00 0.  1.
         21   -1    0    0  501  502  0.00000000000E+00 -0.00000000000E+00 -0.11488729811E+02  0.11488729811E+02  0.00000000000E+00 0.  1.
         21    1    1    2  503  502 -0.17838649881E+02  0.19413139363E+02  0.41063089176E+01  0.26682375877E+02  0.00000000000E+00 0.  1.
          2    1    1    2  501    0  0.17838649881E+02 -0.19413139363E+02  0.86564399014E+03  0.86604538280E+03  0.00000000000E+00 0.  1.
<mgrwt>
<rscale>  2 0.26364510E+02</rscale>
<asrwt>0</asrwt>
<pdfrwt beam="2">  1       21 0.17674976E-02 0.26364510E+02</pdfrwt>
<pdfrwt beam="1">  1        2 0.13557518E+00 0.26364510E+02</pdfrwt>
<totfact> 0.50712578E+05</totfact>
</mgrwt>
</event>
<event>
 4    1  0.2177230E+006  0.2851540E+02  0.7546771E-02  0.1615103E+00
         -2   -1    0    0    0  501 -0.00000000000E+00  0.00000000000E+00  0.86608021694E+03  0.86608021694E+03  0.00000000000E+00 0. -1.
         21   -1    0    0  503  502  0.00000000000E+00 -0.00000000000E+00 -0.20895329260E+02  0.20895329260E+02  0.00000000000E+00 0.  1.
         21    1    1    2  503  501  0.27015556892E+02  0.91262166857E+01 -0.10817522947E+02  0.30498310574E+02  0.00000000000E+00 0.  1.
         -2    1    1    2    0  502 -0.27015556892E+02 -0.91262166857E+01  0.85600241063E+03  0.85647723563E+03  0.00000000000E+00 0. -1.
<mgrwt>
<rscale>  2 0.28515402E+02</rscale>
<asrwt>0</asrwt>
<pdfrwt beam="2">  1       21 0.32146667E-02 0.28515402E+02</pdfrwt>
<pdfrwt beam="1">  1       -2 0.13324308E+00 0.28515402E+02</pdfrwt>
<totfact> 0.17882708E+04</totfact>
</mgrwt>
</event>
<event>
 4    1  0.2177230E+006  0.2430612E+02  0.7546771E-02  0.1671173E+00
          1   -1    0    0  503    0 -0.00000000000E+00  0.00000000000E+00  0.14370584762E+04  0.14370584762E+04  0.00000000000E+00 0. -1.
         21   -1    0    0  501  502  0.00000000000E+00 -0.00000000000E+00 -0.86616885503E+00  0.86616885503E+00  0.00000000000E+00 0. -1.
         21    1    1    2  503  502  0.17367677189E+02 -0.17004450912E+02  0.19697446467E+03  0.19846845415E+03  0.00000000000E+00 0. -1.
          1    1    1    2  501    0 -0.17367677189E+02  0.17004450912E+02  0.12392178427E+04  0.12394561909E+04  0.00000000000E+00 0. -1.
<mgrwt>
<rscale>  2 0.24306122E+02</rscale>
<asrwt>0</asrwt>
<pdfrwt beam="2">  1       21 0.13325790E-03 0.24306122E+02</pdfrwt>
<pdfrwt beam="1">  1        1 0.22108401E+00 0.24306122E+02</pdfrwt>
<totfact> 0.57688401E+06</totfact>
</mgrwt>
</event>
<event>
 4    1  0.2177230E+006  0.3203122E+02  0.7546771E-02  0.1576664E+00
         21   -1    0    0  501  502  0.00000000000E+00  0.00000000000E+00  0.12144612133E+01  0.12144612133E+01  0.00000000000E+00 0.  1.
          2   -1    0    0  503    0 -0.00000000000E+00 -0.00000000000E+00 -0.87950304763E+03  0.87950304763E+03  0.00000000000E+00 0. -1.
         21    1    1    2  503  502 -0.20220554095E+01  0.31967333337E+02 -0.35169486666E+03  0.35315050381E+03  0.00000000000E+00 0.  1.
          2    1    1    2  501    0  0.20220554095E+01 -0.31967333337E+02 -0.52659371976E+03  0.52756700503E+03  0.00000000000E+00 0. -1.
<mgrwt>
<rscale>  2 0.32031221E+02</rscale>
<asrwt>0</asrwt>
<pdfrwt beam="1">  1       21 0.18684016E-03 0.32031221E+02</pdfrwt>
<pdfrwt beam="2">  1        2 0.13530818E+00 0.32031221E+02</pdfrwt>
<totfact> 0.15086977E+07</totfact>
</mgrwt>
</event>
<event>
 4    1  0.2177230E+006  0.2083385E+02  0.7546771E-02  0.1729237E+00
         21   -1    0    0  503  502  0.00000000000E+00  0.00000000000E+00  0.61349193176E+02  0.61349193176E+02  0.00000000000E+00 0.  1.
         -4   -1    0    0    0  501 -0.00000000000E+00 -0.00000000000E+00 -0.35636655827E+02  0.35636655827E+02  0.00000000000E+00 0. -1.
         21    1    1    2  503  501 -0.15837853341E+02  0.13535574882E+02  0.56269400727E+02  0.60002456983E+02  0.00000000000E+00 0.  1.
         -4    1    1    2    0  502  0.15837853341E+02 -0.13535574882E+02 -0.30556863377E+02  0.36983392020E+02  0.00000000000E+00 0. -1.
<mgrwt>
<rscale>  2 0.20833852E+02</rscale>
<asrwt>0</asrwt>
<pdfrwt beam="1">  1       21 0.94383374E-02 0.20833852E+02</pdfrwt>
<pdfrwt beam="2">  1       -4 0.54825624E-02 0.20833852E+02</pdfrwt>
<totfact> 0.44243522E+05</totfact>
</mgrwt>
</event>
<event>
 4    1  0.2177230E+006  0.2950900E+02  0.7546771E-02  0.1603580E+00
         21   -1    0    0  501  502  0.00000000000E+00  0.00000000000E+00  0.17976916560E+01  0.17976916560E+01  0.00000000000E+00 0.  1.
          2   -1    0    0  503    0 -0.00000000000E+00 -0.00000000000E+00 -0.14962449124E+04  0.14962449124E+04  0.00000000000E+00 0.  1.
         21    1    1    2  503  502  0.29494453011E+02 -0.92659025151E+00 -0.13126397897E+03  0.13454000707E+03  0.00000000000E+00 0.  1.
          2    1    1    2  501    0 -0.29494453011E+02  0.92659025151E+00 -0.13631832417E+04  0.13635025969E+04  0.00000000000E+00 0.  1.
<mgrwt>
<rscale>  2 0.29509004E+02</rscale>
<asrwt>0</asrwt>
<pdfrwt beam="1">  1       21 0.27656818E-03 0.29509004E+02</pdfrwt>
<pdfrwt beam="2">  1        2 0.23019133E+00 0.29509004E+02</pdfrwt>
<totfact> 0.39967584E+06</totfact>
</mgrwt>
</event>
<event>
 4    1  0.2177230E+006  0.2302510E+02  0.7546771E-02  0.1691104E+00
          2   -1    0    0  502    0 -0.00000000000E+00  0.00000000000E+00  0.18314933141E+03  0.18314933141E+03  0.00000000000E+00 0.  1.
         21   -1    0    0  503  502  0.00000000000E+00 -0.00000000000E+00 -0.60245433972E+02  0.60245433972E+02  0.00000000000E+00 0.  1.
         21    1    1    2  503  501 -0.13149049488E+02  0.18901264366E+02 -0.57285798775E+02  0.61739922566E+02  0.00000000000E+00 0.  1.
          2    1    1    2  501    0  0.13149049488E+02 -0.18901264366E+02  0.18018969621E+03  0.18165484281E+03  0.00000000000E+00 0.  1.
<mgrwt>
<rscale>  2 0.23025101E+02</rscale>
<asrwt>0</asrwt>
<pdfrwt beam="2">  1       21 0.92685284E-02 0.23025101E+02</pdfrwt>
<pdfrwt beam="1">  1        2 0.28176820E-01 0.23025101E+02</pdfrwt>
<totfact> 0.18134567E+05</totfact>
</mgrwt>
</event>
<event>
 4    1  0.2177230E+006  0.2225284E+02  0.7546771E-02  0.1703916E+00
          2   -1    0    0  503    0 -0.00000000000E+00  0.00000000000E+00  0.81850088835E+03  0.81850088835E+03  0.00000000000E+00 0.  1.
         21   -1    0    0  501  502  0.00000000000E+00 -0.00000000000E+00 -0.16273661277E+04  0.16273661277E+04  0.00000000000E+00 0. -1.
         21    1    1    2  503  502 -0.20365448870E+02 -0.89686842122E+01 -0.16271387857E+04  0.16272909441E+04  0.00000000000E+00 0. -1.
          2    1    1    2  501    0  0.20365448870E+02  0.89686842122E+01  0.81827354639E+03  0.81857607192E+03  0.00000000000E+00 0.  1.
<mgrwt>
<rscale>  2 0.22252838E+02</rscale>
<asrwt>0</asrwt>
<pdfrwt beam="2">  1       21 0.25036402E+00 0.22252838E+02</pdfrwt>
<pdfrwt beam="1">  1        2 0.12592321E+00 0.22252838E+02</pdfrwt>
<totfact> 0.51846707E+01</totfact>
</mgrwt>
</event>
<event>
 4    1  0.2177230E+006  0.2010858E+02  0.7546771E-02  0.1743177E+00
          4   -1    0    0  503    0 -0.00000000000E+00  0.00000000000E+00  0.53149315656E+02  0.53149315656E+02  0.00000000000E+00 0. -1.
         21   -1    0    0  501  502  0.00000000000E+00 -0.00000000000E+00 -0.79573819221E+01  0.79573819221E+01  0.00000000000E+00 0. -1.
         21    1    1    2  503  502  0.63889003431E+01  0.19066643053E+02  0.16192971395E+02  0.25817963659E+02  0.00000000000E+00 0. -1.
          4    1    1    2  501    0 -0.63889003431E+01 -0.19066643053E+02  0.28998962339E+02  0.35288733919E+02  0.00000000000E+00 0. -1.
<mgrwt>
<rscale>  2 0.20108578E+02</rscale>
<asrwt>0</asrwt>
<pdfrwt beam="2">  1       21 0.12242126E-02 0.20108578E+02</pdfrwt>
<pdfrwt beam="1">  1        4 0.81768176E-02 0.20108578E+02</pdfrwt>
<totfact> 0.56859393E+06</totfact>
</mgrwt>
</event>
<event>
 4    1  0.2177230E+006  0.2029935E+02  0.7546771E-02  0.1739440E+00
         21   -1    0    0  503  502  0.00000000000E+00  0.00000000000E+00  0.95030394422E+00  0.95030394422E+00  0.00000000000E+00 0. -1.
         -3   -1    0    0    0  501 -0.00000000000E+00 -0.00000000000E+00 -0.54775895856E+03  0.54775895856E+03  0.00000000000E+00 0. -1.
         21    1    1    2  503  501 -0.20298760841E+02 -0.15446563642E+00 -0.14816261181E+03  0.14954672544E+03  0.00000000000E+00 0. -1.
         -3    1    1    2    0  502  0.20298760841E+02  0.15446563642E+00 -0.39864604281E+03  0.39916253706E+03  0.00000000000E+00 0. -1.
<mgrwt>
<rscale>  2 0.20299349E+02</rscale>
<asrwt>0</asrwt>
<pdfrwt beam="1">  1       21 0.14620060E-03 0.20299349E+02</pdfrwt>
<pdfrwt beam="2">  1       -3 0.84270612E-01 0.20299349E+02</pdfrwt>
<totfact> 0.26149471E+06</totfact>
</mgrwt>
</event>
<event>
 4    1  0.2177230E+006  0.2067317E+02  0.7546771E-02  0.1732263E+00
          2   -1    0    0  502    0 -0.00000000000E+00  0.00000000000E+00  0.40405914441E+03  0.40405914441E+03  0.00000000000E+00 0. -1.
         21   -1    0    0  503  502  0.00000000000E+00 -0.00000000000E+00 -0.39567996539E+02  0.39567996539E+02  0.00000000000E+00 0.  1.
         21    1    1    2  503  501  0.65726186197E+01  0.19600527657E+02 -0.36583196836E+02  0.42020355671E+02  0.00000000000E+00 0.  1.
          2    1    1    2  501    0 -0.65726186197E+01 -0.19600527657E+02  0.40107434471E+03  0.40160678528E+03  0.00000000000E+00 0. -1.
<mgrwt>
<rscale>  2 0.20673171E+02</rscale>
<asrwt>0</asrwt>
<pdfrwt beam="2">  1       21 0.60873844E-02 0.20673171E+02</pdfrwt>
<pdfrwt beam="1">  1        2 0.62162942E-01 0.20673171E+02</pdfrwt>
<totfact> 0.16151369E+05</totfact>
</mgrwt>
</event>
<event>
 4    1  0.2177230E+006  0.4502913E+02  0.7546771E-02  0.1474160E+00
         -1   -1    0    0    0  501 -0.00000000000E+00  0.00000000000E+00  0.19971938734E+03  0.19971938734E+03  0.00000000000E+00 0. -1.
         21   -1    0    0  503  502  0.00000000000E+00 -0.00000000000E+00 -0.48676368952E+02  0.48676368952E+02  0.00000000000E+00 0.  1.
         21    1    1    2  503  501 -0.18220162080E+02  0.41178247708E+02 -0.34967949832E+02  0.57012103154E+02  0.00000000000E+00 0.  1.
         -1    1    1    2    0  502  0.18220162080E+02 -0.41178247708E+02  0.18601096822E+03  0.19138365314E+03  0.00000000000E+00 0. -1.
<mgrwt>
<rscale>  2 0.45029128E+02</rscale>
<asrwt>0</asrwt>
<pdfrwt beam="2">  1       21 0.74886722E-02 0.45029128E+02</pdfrwt>
<pdfrwt beam="1">  1       -1 0.30726059E-01 0.45029128E+02</pdfrwt>
<totfact> 0.10954221E+05</totfact>
</mgrwt>
</event>
<event>
 4    1  0.2177230E+006  0.2134930E+02  0.7546771E-02  0.1719755E+00
          2   -1    0    0  503    0 -0.00000000000E+00  0.00000000000E+00  0.19267448316E+02  0.19267448316E+02  0.00000000000E+00 0.  1.
         21   -1    0    0  501  502  0.00000000000E+00 -0.00000000000E+00 -0.43885471866E+03  0.43885471866E+03  0.00000000000E+00 0. -1.
         21    1    1    2  503  502  0.13578241230E+02  0.16474955770E+02 -0.43259552552E+03  0.43312201687E+03  0.00000000000E+00 0. -1.
          2    1    1    2  501    0 -0.13578241230E+02 -0.16474955770E+02  0.13008255174E+02  0.25000150103E+02  0.00000000000E+00 0.  1.
<mgrwt>
<rscale>  2 0.21349304E+02</rscale>
<asrwt>0</asrwt>
<pdfrwt beam="2">  1       21 0.67516104E-01 0.21349304E+02</pdfrwt>
<pdfrwt beam="1">  1        2 0.29642231E-02 0.21349304E+02</pdfrwt>
<totfact> 0.67304545E+04</totfact>
</mgrwt>
</event>
<event>
 4    1  0.2177230E+006  0.2296605E+02  0.7546771E-02  0.1692061E+00
          4   -1    0    0  502    0 -0.00000000000E+00  0.00000000000E+00  0.18786719141E+03  0.18786719141E+03  0.00000000000E+00 0. -1.
         21   -1    0    0  503  502  0.00000000000E+00 -0.00000000000E+00 -0.54216206801E+01  0.54216206801E+01  0.00000000000E+00 0. -1.
         21    1    1    2  503  501  0.21127381095E+02  0.90040776769E+01  0.24114851991E+02  0.33301137117E+02  0.00000000000E+00 0. -1.
          4    1    1    2  501    0 -0.21127381095E+02 -0.90040776769E+01  0.15833071874E+03  0.15998767497E+03  0.00000000000E+00 0. -1.
<mgrwt>
<rscale>  2 0.22966054E+02</rscale>
<asrwt>0</asrwt>
<pdfrwt beam="2">  1       21 0.83409563E-03 0.22966054E+02</pdfrwt>
<pdfrwt beam="1">  1        4 0.28902640E-01 0.22966054E+02</pdfrwt>
<totfact> 0.13028405E+06</totfact>
</mgrwt>
</event>
<event>
 4    1  0.2177230E+006  0.3293165E+02  0.7546771E-02  0.1567774E+00
          1   -1    0    0  502    0 -0.00000000000E+00  0.00000000000E+00  0.13787693804E+04  0.13787693804E+04  0.00000000000E+00 0.  1.
         21   -1    0    0  503  502  0.00000000000E+00 -0.00000000000E+00 -0.18350277406E+01  0.18350277406E+01  0.00000000000E+00 0.  1.
         21    1    1    2  503  501  0.64805895497E+01  0.32287700235E+02  0.16667908874E+03  0.16990118378E+03  0.00000000000E+00 0.  1.
          1    1    1    2  501    0 -0.64805895497E+01 -0.32287700235E+02  0.12102552639E+04  0.12107032244E+04  0.00000000000E+00 0.  1.
<mgrwt>
<rscale>  2 0.32931651E+02</rscale>
<asrwt>0</asrwt>
<pdfrwt beam="2">  1       21 0.28231306E-03 0.32931651E+02</pdfrwt>
<pdfrwt beam="1">  1        1 0.21211754E+00 0.32931651E+02</pdfrwt>
<totfact> 0.22207011E+06</totfact>
</mgrwt>
</event>
<event>
 4    1  0.2177230E+006  0.2470639E+02  0.7546771E-02  0.1665255E+00
         -1   -1    0    0    0  501 -0.00000000000E+00  0.00000000000E+00  0.14057568231E+04  0.14057568231E+04  0.00000000000E+00 0. -1.
         21   -1    0    0  501  502  0.00000000000E+00 -0.00000000000E+00 -0.11406094921E+01  0.11406094921E+01  0.00000000000E+00 0.  1.
         21    1    1    2  503  502 -0.23769231579E+02  0.67401182984E+01  0.14872027068E+03  0.15075849720E+03  0.00000000000E+00 0.  1.
         -1    1    1    2    0  503  0.23769231579E+02 -0.67401182984E+01  0.12558959430E+04  0.12561389354E+04  0.00000000000E+00 0. -1.
<mgrwt>
<rscale>  2 0.24706387E+02</rscale>
<asrwt>0</asrwt>
<pdfrwt beam="2">  1       21 0.17547951E-03 0.24706387E+02</pdfrwt>
<pdfrwt beam="1">  1       -1 0.21626889E+00 0.24706387E+02</pdfrwt>
<totfact> 0.54153453E+05</totfact>
</mgrwt>
</event>
<event>
 4    1  0.2177230E+006  0.2228232E+02  0.7546771E-02  0.1703415E+00
         21   -1    0    0  503  502  0.00000000000E+00  0.00000000000E+00  0.16612150702E+01  0.16612150702E+01  0.00000000000E+00 0.  1.
         -1   -1    0    0    0  501 -0.00000000000E+00 -0.00000000000E+00 -0.43386626613E+03  0.43386626613E+03  0.00000000000E+00 0.  1.
         21    1    1    2  503  501 -0.11181417592E+02 -0.19273756033E+02 -0.94636579224E+02  0.97224399706E+02  0.00000000000E+00 0.  1.
         -1    1    1    2    0  502  0.11181417592E+02  0.19273756033E+02 -0.33756847184E+03  0.33830308150E+03  0.00000000000E+00 0.  1.
<mgrwt>
<rscale>  2 0.22282320E+02</rscale>
<asrwt>0</asrwt>
<pdfrwt beam="1">  1       21 0.25557185E-03 0.22282320E+02</pdfrwt>
<pdfrwt beam="2">  1       -1 0.66748578E-01 0.22282320E+02</pdfrwt>
<totfact> 0.45879938E+06</totfact>
</mgrwt>
</event>
<event>
 4    1  0.2177230E+006  0.3709928E+02  0.7546771E-02  0.1530711E+00
         -2   -1    0    0    0  501 -0.00000000000E+00  0.00000000000E+00  0.14202117121E+03  0.14202117121E+03  0.00000000000E+00 0.  1.
         21   -1    0    0  501  502  0.00000000000E+00 -0.00000000000E+00 -0.60097683860E+02  0.60097683860E+02  0.00000000000E+00 0. -1.
         21    1    1    2  503  502 -0.33073479065E+02  0.16807787144E+02 -0.51591391218E+02  0.63545482718E+02  0.00000000000E+00 0. -1.
         -2    1    1    2    0  503  0.33073479065E+02 -0.16807787144E+02  0.13351487857E+03  0.13857337236E+03  0.00000000000E+00 0.  1.
<mgrwt>
<rscale>  2 0.37099282E+02</rscale>
<asrwt>0</asrwt>
<pdfrwt beam="2">  1       21 0.92457976E-02 0.37099282E+02</pdfrwt>
<pdfrwt beam="1">  1       -2 0.21849411E-01 0.37099282E+02</pdfrwt>
<totfact> 0.11742367E+05</totfact>
</mgrwt>
</event>
<event>
 4    1  0.2177230E+006  0.3583214E+02  0.7546771E-02  0.1541333E+00
          2   -1    0    0  503    0 -0.00000000000E+00  0.00000000000E+00  0.32853549222E+03  0.32853549222E+03  0.00000000000E+00 0.  1.
         21   -1    0    0  501  502  0.00000000000E+00 -0.00000000000E+00 -0.56199011197E+01  0.56199011197E+01  0.00000000000E+00 0.  1.
         21    1    1    2  503  502 -0.46572450440E+01  0.35528192427E+02  0.69246619024E+02  0.77968177064E+02  0.00000000000E+00 0.  1.
          2    1    1    2  501    0  0.46572450440E+01 -0.35528192427E+02  0.25366897208E+03  0.25618721628E+03  0.00000000000E+00 0.  1.
<mgrwt>
<rscale>  2 0.35832142E+02</rscale>
<asrwt>0</asrwt>
<pdfrwt beam="2">  1       21 0.86460043E-03 0.35832142E+02</pdfrwt>
<pdfrwt beam="1">  1        2 0.50543907E-01 0.35832142E+02</pdfrwt>
<totfact> 0.45215684E+06</totfact>
</mgrwt>
</event>
<event>
 4    1  0.2177230E+006  0.2341712E+02  0.7546771E-02  0.1684837E+00
         -1   -1    0    0    0  501 -0.00000000000E+00  0.00000000000E+00  0.67976294376E+02  0.67976294376E+02  0.00000000000E+00 0. -1.
         21   -1    0    0  501  502  0.00000000000E+00 -0.00000000000E+00 -0.14198839016E+04  0.14198839016E+04  0.00000000000E+00 0.  1.
         21    1    1    2  503  502  0.60596474366E+01  0.22619505148E+02 -0.14177676037E+04  0.14179609795E+04  0.00000000000E+00 0.  1.
         -1    1    1    2    0  503 -0.60596474366E+01 -0.22619505148E+02  0.65859996422E+02  0.69899216511E+02  0.00000000000E+00 0. -1.
<mgrwt>
<rscale>  2 0.23417116E+02</rscale>
<asrwt>0</asrwt>
<pdfrwt beam="2">  1       21 0.21844369E+00 0.23417116E+02</pdfrwt>
<pdfrwt beam="1">  1       -1 0.10457891E-01 0.23417116E+02</pdfrwt>
<totfact> 0.68477283E+02</totfact>
</mgrwt>
</event>
<event>
 4    1  0.2177230E+006  0.2747639E+02  0.7546771E-02  0.1627785E+00
          2   -1    0    0  503    0 -0.00000000000E+00  0.00000000000E+00  0.16664553265E+04  0.16664553265E+04  0.00000000000E+00 0.  1.
         21   -1    0    0  501  502  0.00000000000E+00 -0.00000000000E+00 -0.62384717819E+01  0.62384717819E+01  0.00000000000E+00 0. -1.
         21    1    1    2  503  502 -0.15251488756E+02  0.22854853771E+02  0.24700958673E+02  0.36947119097E+02  0.00000000000E+00 0. -1.
          2    1    1    2  501    0  0.15251488756E+02 -0.22854853771E+02  0.16355158960E+04  0.16357466792E+04  0.00000000000E+00 0.  1.
<mgrwt>
<rscale>  2 0.27476394E+02</rscale>
<asrwt>0</asrwt>
<pdfrwt beam="2">  1       21 0.95976622E-03 0.27476394E+02</pdfrwt>
<pdfrwt beam="1">  1        2 0.25637739E+00 0.27476394E+02</pdfrwt>
<totfact> 0.51664840E+05</totfact>
</mgrwt>
</event>
<event>
 4    1  0.2177230E+006  0.3959757E+02  0.7546771E-02  0.1511194E+00
          2   -1    0    0  503    0 -0.00000000000E+00  0.00000000000E+00  0.96526916087E+02  0.96526916087E+02  0.00000000000E+00 0. -1.
         21   -1    0    0  501  502  0.00000000000E+00 -0.00000000000E+00 -0.19367047695E+02  0.19367047695E+02  0.00000000000E+00 0.  1.
         21    1    1    2  503  502  0.28079756238E+02  0.27919441473E+02  0.15309770367E+02  0.42454175192E+02  0.00000000000E+00 0.  1.
          2    1    1    2  501    0 -0.28079756238E+02 -0.27919441473E+02  0.61850098025E+02  0.73439788591E+02  0.00000000000E+00 0. -1.
<mgrwt>
<rscale>  2 0.39597575E+02</rscale>
<asrwt>0</asrwt>
<pdfrwt beam="2">  1       21 0.29795458E-02 0.39597575E+02</pdfrwt>
<pdfrwt beam="1">  1        2 0.14850295E-01 0.39597575E+02</pdfrwt>
<totfact> 0.24539900E+06</totfact>
</mgrwt>
</event>
<event>
 4    1  0.2177230E+006  0.2257833E+02  0.7546771E-02  0.1698438E+00
          2   -1    0    0  502    0 -0.00000000000E+00  0.00000000000E+00  0.15855523406E+03  0.15855523406E+03  0.00000000000E+00 0.  1.
         21   -1    0    0  503  502  0.00000000000E+00 -0.00000000000E+00 -0.34097011750E+02  0.34097011750E+02  0.00000000000E+00 0.  1.
         21    1    1    2  503  501 -0.21373822702E+02  0.72760288005E+01 -0.29443070696E+02  0.37103575353E+02  0.00000000000E+00 0.  1.
          2    1    1    2  501    0  0.21373822702E+02 -0.72760288005E+01  0.15390129300E+03  0.15554867045E+03  0.00000000000E+00 0.  1.
<mgrwt>
<rscale>  2 0.22578328E+02</rscale>
<asrwt>0</asrwt>
<pdfrwt beam="2">  1       21 0.52456942E-02 0.22578328E+02</pdfrwt>
<pdfrwt beam="1">  1        2 0.24393113E-01 0.22578328E+02</pdfrwt>
<totfact> 0.52686074E+05</totfact>
</mgrwt>
</event>
<event>
 4    1  0.2177230E+006  0.2665636E+02  0.7546771E-02  0.1638291E+00
         21   -1    0    0  503  502  0.00000000000E+00  0.00000000000E+00  0.30684438982E+02  0.30684438982E+02  0.00000000000E+00 0.  1.
         -2   -1    0    0    0  501 -0.00000000000E+00 -0.00000000000E+00 -0.24511865112E+02  0.24511865112E+02  0.00000000000E+00 0. -1.
         21    1    1    2  503  501 -0.15233160459E+00  0.26655924263E+02  0.95745682251E+01  0.28323733156E+02  0.00000000000E+00 0.  1.
         -2    1    1    2    0  502  0.15233160459E+00 -0.26655924263E+02 -0.34019943559E+01  0.26872570938E+02  0.00000000000E+00 0. -1.
<mgrwt>
<rscale>  2 0.26656360E+02</rscale>
<asrwt>0</asrwt>
<pdfrwt beam="1">  1       21 0.47206829E-02 0.26656360E+02</pdfrwt>
<pdfrwt beam="2">  1       -2 0.37710562E-02 0.26656360E+02</pdfrwt>
<totfact> 0.46620804E+06</totfact>
</mgrwt>
</event>
<event>
 4    1  0.2177230E+006  0.2835289E+02  0.7546771E-02  0.1617043E+00
         -3   -1    0    0    0  501 -0.00000000000E+00  0.00000000000E+00  0.14092683387E+03  0.14092683387E+03  0.00000000000E+00 0.  1.
         21   -1    0    0  503  502  0.00000000000E+00 -0.00000000000E+00 -0.14938543291E+02  0.14938543291E+02  0.00000000000E+00 0.  1.
         21    1    1    2  503  501  0.17178116607E+02  0.22556566605E+02  0.17215019994E+01  0.28405104406E+02  0.00000000000E+00 0.  1.
         -3    1    1    2    0  502 -0.17178116607E+02 -0.22556566605E+02  0.12426678858E+03  0.12746027276E+03  0.00000000000E+00 0.  1.
<mgrwt>
<rscale>  2 0.28352890E+02</rscale>
<asrwt>0</asrwt>
<pdfrwt beam="2">  1       21 0.22982375E-02 0.28352890E+02</pdfrwt>
<pdfrwt beam="1">  1       -3 0.21681050E-01 0.28352890E+02</pdfrwt>
<totfact> 0.62530431E+05</totfact>
</mgrwt>
</event>
<event>
 4    1  0.2177230E+006  0.2486414E+02  0.7546771E-02  0.1662961E+00
         -4   -1    0    0    0  501 -0.00000000000E+00  0.00000000000E+00  0.21112554925E+02  0.21112554925E+02  0.00000000000E+00 0. -1.
         21   -1    0    0  501  502  0.00000000000E+00 -0.00000000000E+00 -0.53281652402E+02  0.53281652402E+02  0.00000000000E+00 0. -1.
         21    1    1    2  503  502 -0.24241181257E+02  0.55308762374E+01 -0.41048854297E+02  0.47992019126E+02  0.00000000000E+00 0. -1.
         -4    1    1    2    0  503  0.24241181257E+02 -0.55308762374E+01  0.88797568199E+01  0.26402188202E+02  0.00000000000E+00 0. -1.
<mgrwt>
<rscale>  2 0.24864140E+02</rscale>
<asrwt>0</asrwt>
<pdfrwt beam="2">  1       21 0.81971772E-02 0.24864140E+02</pdfrwt>
<pdfrwt beam="1">  1       -4 0.32480854E-02 0.24864140E+02</pdfrwt>
<totfact> 0.13270803E+06</totfact>
</mgrwt>
</event>
<event>
 4    1  0.2177230E+006  0.2028940E+02  0.7546771E-02  0.1739633E+00
         21   -1    0    0  503  502  0.00000000000E+00  0.00000000000E+00  0.16198265408E+03  0.16198265408E+03  0.00000000000E+00 0. -1.
          3   -1    0    0  502    0 -0.00000000000E+00 -0.00000000000E+00 -0.48412200033E+01  0.48412200033E+01  0.00000000000E+00 0. -1.
         21    1    1    2  503  501 -0.17043094642E+02 -0.11008762893E+02  0.13606164811E+03  0.13756610056E+03  0.00000000000E+00 0. -1.
          3    1    1    2  501    0  0.17043094642E+02  0.11008762893E+02  0.21079785964E+02  0.29257773526E+02  0.00000000000E+00 0. -1.
<mgrwt>
<rscale>  2 0.20289405E+02</rscale>
<asrwt>0</asrwt>
<pdfrwt beam="1">  1       21 0.24920404E-01 0.20289405E+02</pdfrwt>
<pdfrwt beam="2">  1        3 0.74480320E-03 0.20289405E+02</pdfrwt>
<totfact> 0.18370756E+06</totfact>
</mgrwt>
</event>
<event>
 4    1  0.2177230E+006  0.2926214E+02  0.7546771E-02  0.1606391E+00
         -3   -1    0    0    0  501 -0.00000000000E+00  0.00000000000E+00  0.46587390251E+01  0.46587390251E+01  0.00000000000E+00 0. -1.
         21   -1    0    0  501  502  0.00000000000E+00 -0.00000000000E+00 -0.18688741746E+03  0.18688741746E+03  0.00000000000E+00 0. -1.
         21    1    1    2  503  502  0.27429559889E+02  0.10192756965E+02 -0.10342550371E+03  0.10748538444E+03  0.00000000000E+00 0. -1.
         -3    1    1    2    0  503 -0.27429559889E+02 -0.10192756965E+02 -0.78803174722E+02  0.84060772043E+02  0.00000000000E+00 0. -1.
<mgrwt>
<rscale>  2 0.29262144E+02</rscale>
<asrwt>0</asrwt>
<pdfrwt beam="2">  1       21 0.28751908E-01 0.29262144E+02</pdfrwt>
<pdfrwt beam="1">  1       -3 0.71672914E-03 0.29262144E+02</pdfrwt>
<totfact> 0.16982873E+06</totfact>
</mgrwt>
</event>
<event>
 4    1  0.2177230E+006  0.2782575E+02  0.7546771E-02  0.1623445E+00
         21   -1    0    0  501  502  0.00000000000E+00  0.00000000000E+00  0.33896476839E+03  0.33896476839E+03  0.00000000000E+00 0.  1.
         -2   -1    0    0    0  501 -0.00000000000E+00 -0.00000000000E+00 -0.17743486708E+02  0.17743486708E+02  0.00000000000E+00 0.  1.
         21    1    1    2  503  502 -0.24865890200E+02  0.12488381205E+02  0.32708909759E+03  0.32827054379E+03  0.00000000000E+00 0.  1.
         -2    1    1    2    0  503  0.24865890200E+02 -0.12488381205E+02 -0.58678159106E+01  0.28437711302E+02  0.00000000000E+00 0.  1.
<mgrwt>
<rscale>  2 0.27825746E+02</rscale>
<asrwt>0</asrwt>
<pdfrwt beam="1">  1       21 0.52148421E-01 0.27825746E+02</pdfrwt>
<pdfrwt beam="2">  1       -2 0.27297674E-02 0.27825746E+02</pdfrwt>
<totfact> 0.11281254E+05</totfact>
</mgrwt>
</event>
<event>
 4    1  0.2177230E+006  0.3268892E+02  0.7546771E-02  0.1570136E+00
         21   -1    0    0  501  502  0.00000000000E+00  0.00000000000E+00  0.83391108742E+01  0.83391108742E+01  0.00000000000E+00 0. -1.
          3   -1    0    0  503    0 -0.00000000000E+00 -0.00000000000E+00 -0.18419252280E+03  0.18419252280E+03  0.00000000000E+00 0. -1.
         21    1    1    2  503  502  0.21084717215E+02 -0.24979992162E+02 -0.34821442556E+02  0.47760843482E+02  0.00000000000E+00 0. -1.
          3    1    1    2  501    0 -0.21084717215E+02  0.24979992162E+02 -0.14103196937E+03  0.14477079020E+03  0.00000000000E+00 0. -1.
<mgrwt>
<rscale>  2 0.32688917E+02</rscale>
<asrwt>0</asrwt>
<pdfrwt beam="1">  1       21 0.12829403E-02 0.32688917E+02</pdfrwt>
<pdfrwt beam="2">  1        3 0.28337309E-01 0.32688917E+02</pdfrwt>
<totfact> 0.10083872E+06</totfact>
</mgrwt>
</event>
<event>
 4    1  0.2177230E+006  0.3753493E+02  0.7546771E-02  0.1527177E+00
         21   -1    0    0  503  502  0.00000000000E+00  0.00000000000E+00  0.12732227426E+01  0.12732227426E+01  0.00000000000E+00 0.  1.
          1   -1    0    0  502    0 -0.00000000000E+00 -0.00000000000E+00 -0.12672118142E+04  0.12672118142E+04  0.00000000000E+00 0. -1.
         21    1    1    2  503  501  0.20573243374E+02 -0.31394465189E+02 -0.40712882557E+03  0.40885541625E+03  0.00000000000E+00 0.  1.
          1    1    1    2  501    0 -0.20573243374E+02  0.31394465189E+02 -0.85880976589E+03  0.85962962070E+03  0.00000000000E+00 0. -1.
<mgrwt>
<rscale>  2 0.37534928E+02</rscale>
<asrwt>0</asrwt>
<pdfrwt beam="1">  1       21 0.19588047E-03 0.37534928E+02</pdfrwt>
<pdfrwt beam="2">  1        1 0.19495561E+00 0.37534928E+02</pdfrwt>
<totfact> 0.45538372E+06</totfact>
</mgrwt>
</event>
<event>
 4    1  0.2177230E+006  0.2195753E+02  0.7546771E-02  0.1708987E+00
         21   -1    0    0  503  502  0.00000000000E+00  0.00000000000E+00  0.32180498621E+01  0.32180498621E+01  0.00000000000E+00 0. -1.
         -2   -1    0    0    0  501 -0.00000000000E+00 -0.00000000000E+00 -0.28915438349E+03  0.28915438349E+03  0.00000000000E+00 0.  1.
         21    1    1    2  503  501  0.19457044849E+02 -0.10176282662E+02 -0.41491026465E+02  0.46942929182E+02  0.00000000000E+00 0. -1.
         -2    1    1    2    0  502 -0.19457044849E+02  0.10176282662E+02 -0.24444530716E+03  0.24542950417E+03  0.00000000000E+00 0.  1.
<mgrwt>
<rscale>  2 0.21957535E+02</rscale>
<asrwt>0</asrwt>
<pdfrwt beam="1">  1       21 0.49508442E-03 0.21957535E+02</pdfrwt>
<pdfrwt beam="2">  1       -2 0.44485305E-01 0.21957535E+02</pdfrwt>
<totfact> 0.29178161E+06</totfact>
</mgrwt>
</event>
<event>
 4    1  0.2177230E+006  0.2221519E+02  0.7546771E-02  0.1704557E+00
         21   -1    0    0  503  502  0.00000000000E+00  0.00000000000E+00  0.14202726228E+02  0.14202726228E+02  0.00000000000E+00 0. -1.
         -1   -1    0    0    0  501 -0.00000000000E+00 -0.00000000000E+00 -0.10510924360E+03  0.10510924360E+03  0.00000000000E+00 0. -1.
         21    1    1    2  503  501  0.21990038982E+02 -0.31548444110E+01  0.33558231881E+01  0.22467229623E+02  0.00000000000E+00 0. -1.
         -1    1    1    2    0  502 -0.21990038982E+02  0.31548444110E+01 -0.94262340563E+02  0.96844740209E+02  0.00000000000E+00 0. -1.
<mgrwt>
<rscale>  2 0.22215194E+02</rscale>
<asrwt>0</asrwt>
<pdfrwt beam="1">  1       21 0.21850347E-02 0.22215194E+02</pdfrwt>
<pdfrwt beam="2">  1       -1 0.16170653E-01 0.22215194E+02</pdfrwt>
<totfact> 0.18801048E+06</totfact>
</mgrwt>
</event>
<event>
 4    1  0.2177230E+006  0.2348215E+02  0.7546771E-02  0.1683812E+00
          3   -1    0    0  503    0 -0.00000000000E+00  0.00000000000E+00  0.27805687968E+03  0.27805687968E+03  0.00000000000E+00 0.  1.
         21   -1    0    0  501  502  0.00000000000E+00 -0.00000000000E+00 -0.27526861831E+01  0.27526861831E+01  0.00000000000E+00 0. -1.
         21    1    1    2  503  502 -0.44236747190E+00 -0.23477978552E+02  0.63412489660E+02  0.67620669996E+02  0.00000000000E+00 0. -1.
          3    1    1    2  501    0  0.44236747190E+00  0.23477978552E+02  0.21189170384E+03  0.21318889587E+03  0.00000000000E+00 0.  1.
<mgrwt>
<rscale>  2 0.23482146E+02</rscale>
<asrwt>0</asrwt>
<pdfrwt beam="2">  1       21 0.42349040E-03 0.23482146E+02</pdfrwt>
<pdfrwt beam="1">  1        3 0.42777960E-01 0.23482146E+02</pdfrwt>
<totfact> 0.22506806E+06</totfact>
</mgrwt>
</event>
<event>
 4    1  0.2177230E+006  0.2153978E+02  0.7546771E-02  0.1716335E+00
          2   -1    0    0  503    0 -0.00000000000E+00  0.00000000000E+00  0.62594588380E+03  0.62594588380E+03  0.00000000000E+00 0.  1.
         21   -1    0    0  501  502  0.00000000000E+00 -0.00000000000E+00 -0.82581060147E+00  0.82581060147E+00  0.00000000000E+00 0.  1.
         21    1    1    2  503  502 -0.54001876255E+01  0.20851855710E+02  0.21225859841E+03  0.21334871575E+03  0.00000000000E+00 0.  1.
          2    1    1    2  501    0  0.54001876255E+01 -0.20851855710E+02  0.41286147478E+03  0.41342297865E+03  0.00000000000E+00 0.  1.
<mgrwt>
<rscale>  2 0.21539775E+02</rscale>
<asrwt>0</asrwt>
<pdfrwt beam="2">  1       21 0.12704829E-03 0.21539775E+02</pdfrwt>
<pdfrwt beam="1">  1        2 0.96298987E-01 0.21539775E+02</pdfrwt>
<totfact> 0.34588655E+07</totfact>
</mgrwt>
</event>
<event>
 4    1  0.2177230E+006  0.2252928E+02  0.7546771E-02  0.1699256E+00
         21   -1    0    0  503  502  0.00000000000E+00  0.00000000000E+00  0.54161920818E+00  0.54161920818E+00  0.00000000000E+00 0.  1.
         -2   -1    0    0    0  501 -0.00000000000E+00 -0.00000000000E+00 -0.10136333131E+04  0.10136333131E+04  0.00000000000E+00 0.  1.
         21    1    1    2  503  501  0.22183064395E+02 -0.39344947434E+01 -0.64585427494E+03  0.64624709907E+03  0.00000000000E+00 0.  1.
         -2    1    1    2    0  502 -0.22183064395E+02  0.39344947434E+01 -0.36723741895E+03  0.36792783324E+03  0.00000000000E+00 0.  1.
<mgrwt>
<rscale>  2 0.22529283E+02</rscale>
<asrwt>0</asrwt>
<pdfrwt beam="1">  1       21 0.83326566E-04 0.22529283E+02</pdfrwt>
<pdfrwt beam="2">  1       -2 0.15594259E+00 0.22529283E+02</pdfrwt>
<totfact> 0.26428860E+06</totfact>
</mgrwt>
</event>
<event>
 4    1  0.2177230E+006  0.2211859E+02  0.7546771E-02  0.1706209E+00
          2   -1    0    0  502    0 -0.00000000000E+00  0.00000000000E+00  0.10135526790E+03  0.10135526790E+03  0.00000000000E+00 0. -1.
         21   -1    0    0  503  502  0.00000000000E+00 -0.00000000000E+00 -0.57365736388E+01  0.57365736388E+01  0.00000000000E+00 0. -1.
         21    1    1    2  503  501  0.21882602614E+02 -0.32223699916E+01  0.26486637911E+02  0.34507592691E+02  0.00000000000E+00 0. -1.
          2    1    1    2  501    0 -0.21882602614E+02  0.32223699916E+01  0.69132056346E+02  0.72584248844E+02  0.00000000000E+00 0. -1.
<mgrwt>
<rscale>  2 0.22118589E+02</rscale>
<asrwt>0</asrwt>
<pdfrwt beam="2">  1       21 0.88254987E-03 0.22118589E+02</pdfrwt>
<pdfrwt beam="1">  1        2 0.15593117E-01 0.22118589E+02</pdfrwt>
<totfact> 0.13097965E+07</totfact>
</mgrwt>
</event>
<event>
 4    1  0.2177230E+006  0.2135959E+02  0.7546771E-02  0.1719569E+00
         21   -1    0    0  501  502  0.00000000000E+00  0.00000000000E+00  0.31622009975E+01  0.31622009975E+01  0.00000000000E+00 0.  1.
          2   -1    0    0  503    0 -0.00000000000E+00 -0.00000000000E+00 -0.14286726227E+04  0.14286726227E+04  0.00000000000E+00 0. -1.
         21    1    1    2  503  502  0.11329248808E+02  0.18107463779E+02 -0.33948679638E+02  0.40109163195E+02  0.00000000000E+00 0.  1.
          2    1    1    2  501    0 -0.11329248808E+02 -0.18107463779E+02 -0.13915617421E+04  0.13917256605E+04  0.00000000000E+00 0. -1.
<mgrwt>
<rscale>  2 0.21359591E+02</rscale>
<asrwt>0</asrwt>
<pdfrwt beam="1">  1       21 0.48649158E-03 0.21359591E+02</pdfrwt>
<pdfrwt beam="2">  1        2 0.21979619E+00 0.21359591E+02</pdfrwt>
<totfact> 0.17761328E+06</totfact>
</mgrwt>
</event>
<event>
 4    1  0.2177230E+006  0.2866897E+02  0.7546771E-02  0.1613285E+00
         21   -1    0    0  501  502  0.00000000000E+00  0.00000000000E+00  0.33949978113E+01  0.33949978113E+01  0.00000000000E+00 0.  1.
         -3   -1    0    0    0  501 -0.00000000000E+00 -0.00000000000E+00 -0.31149140057E+03  0.31149140057E+03  0.00000000000E+00 0. -1.
         21    1    1    2  503  502  0.22653462264E+02  0.17570721819E+02 -0.79734047250E+02  0.84731504817E+02  0.00000000000E+00 0.  1.
         -3    1    1    2    0  503 -0.22653462264E+02 -0.17570721819E+02 -0.22836235550E+03  0.23015489356E+03  0.00000000000E+00 0. -1.
<mgrwt>
<rscale>  2 0.28668966E+02</rscale>
<asrwt>0</asrwt>
<pdfrwt beam="1">  1       21 0.52230727E-03 0.28668966E+02</pdfrwt>
<pdfrwt beam="2">  1       -3 0.47921762E-01 0.28668966E+02</pdfrwt>
<totfact> 0.14324956E+06</totfact>
</mgrwt>
</event>
<event>
 4    1  0.2177230E+006  0.2331082E+02  0.7546771E-02  0.1686521E+00
         21   -1    0    0  501  502  0.00000000000E+00  0.00000000000E+00  0.16770813654E+03  0.16770813654E+03  0.00000000000E+00 0.  1.
         -2   -1    0    0    0  501 -0.00000000000E+00 -0.00000000000E+00 -0.11952904615E+03  0.11952904615E+03  0.00000000000E+00 0. -1.
         21    1    1    2  503  502  0.15439444876E+02  0.17464761548E+02  0.16574820129E+03  0.16737939116E+03  0.00000000000E+00 0.  1.
         -2    1    1    2    0  503 -0.15439444876E+02 -0.17464761548E+02 -0.11756911089E+03  0.11985779153E+03  0.00000000000E+00 0. -1.
<mgrwt>
<rscale>  2 0.23310821E+02</rscale>
<asrwt>0</asrwt>
<pdfrwt beam="1">  1       21 0.25801252E-01 0.23310821E+02</pdfrwt>
<pdfrwt beam="2">  1       -2 0.18389084E-01 0.23310821E+02</pdfrwt>
<totfact> 0.25166162E+04</totfact>
</mgrwt>
</event>
<event>
 4    1  0.2177230E+006  0.2396196E+02  0.7546771E-02  0.1676375E+00
         21   -1    0    0  501  502  0.00000000000E+00  0.00000000000E+00  0.29549453434E+02  0.29549453434E+02  0.00000000000E+00 0.  1.
          2   -1    0    0  503    0 -0.00000000000E+00 -0.00000000000E+00 -0.19668044451E+02  0.19668044451E+02  0.00000000000E+00 0.  1.
         21    1    1    2  503  502 -0.22783877745E+02  0.74209337382E+01  0.76423386543E+01  0.25151156688E+02  0.00000000000E+00 0.  1.
          2    1    1    2  501    0  0.22783877745E+02 -0.74209337382E+01  0.22390703292E+01  0.24066341197E+02  0.00000000000E+00 0.  1.
<mgrwt>
<rscale>  2 0.23961956E+02</rscale>
<asrwt>0</asrwt>
<pdfrwt beam="1">  1       21 0.45460698E-02 0.23961956E+02</pdfrwt>
<pdfrwt beam="2">  1        2 0.30258530E-02 0.23961956E+02</pdfrwt>
<totfact> 0.75726143E+06</totfact>
</mgrwt>
</event>
<event>
 4    1  0.2177230E+006  0.2145536E+02  0.7546771E-02  0.1717845E+00
         21   -1    0    0  503  502  0.00000000000E+00  0.00000000000E+00  0.36334855927E+01  0.36334855927E+01  0.00000000000E+00 0.  1.
          2   -1    0    0  502    0 -0.00000000000E+00 -0.00000000000E+00 -0.98742404017E+03  0.98742404017E+03  0.00000000000E+00 0.  1.
         21    1    1    2  503  501  0.14701611701E+02  0.15626739701E+02 -0.29246854105E+02  0.36272728810E+02  0.00000000000E+00 0.  1.
          2    1    1    2  501    0 -0.14701611701E+02 -0.15626739701E+02 -0.95454370047E+03  0.95478479695E+03  0.00000000000E+00 0.  1.
<mgrwt>
<rscale>  2 0.21455358E+02</rscale>
<asrwt>0</asrwt>
<pdfrwt beam="1">  1       21 0.55899644E-03 0.21455358E+02</pdfrwt>
<pdfrwt beam="2">  1        2 0.15191176E+00 0.21455358E+02</pdfrwt>
<totfact> 0.24103737E+06</totfact>
</mgrwt>
</event>
<event>
 4    1  0.2177230E+006  0.2676412E+02  0.7546771E-02  0.1636884E+00
          2   -1    0    0  503    0 -0.00000000000E+00  0.00000000000E+00  0.96423787086E+02  0.96423787086E+02  0.00000000000E+00 0. -1.
         21   -1    0    0  501  502  0.00000000000E+00 -0.00000000000E+00 -0.83362959749E+01  0.83362959749E+01  0.00000000000E+00 0. -1.
         21    1    1    2  503  502  0.26744590862E+02 -0.10222395678E+01  0.26761944108E+02  0.37848642863E+02  0.00000000000E+00 0. -1.
          2    1    1    2  501    0 -0.26744590862E+02  0.10222395678E+01  0.61325547004E+02  0.66911440198E+02  0.00000000000E+00 0. -1.
<mgrwt>
<rscale>  2 0.26764120E+02</rscale>
<asrwt>0</asrwt>
<pdfrwt beam="2">  1       21 0.12825071E-02 0.26764120E+02</pdfrwt>
<pdfrwt beam="1">  1        2 0.14834428E-01 0.26764120E+02</pdfrwt>
<totfact> 0.83193953E+06</totfact>
</mgrwt>
</event>
<event>
 4    1  0.2177230E+006  0.2282895E+02  0.7546771E-02  0.1694298E+00
          2   -1    0    0  503    0 -0.00000000000E+00  0.00000000000E+00  0.28688376374E+03  0.28688376374E+03  0.00000000000E+00 0.  1.
         21   -1    0    0  501  502  0.00000000000E+00 -0.00000000000E+00 -0.19099086862E+01  0.19099086862E+01  0.00000000000E+00 0. -1.
         21    1    1    2  503  502 -0.17013067273E+02  0.15222229757E+02  0.17439863264E+03  0.17588645145E+03  0.00000000000E+00 0. -1.
          2    1    1    2  501    0  0.17013067273E+02 -0.15222229757E+02  0.11057522241E+03  0.11290722098E+03  0.00000000000E+00 0.  1.
<mgrwt>
<rscale>  2 0.22828945E+02</rscale>
<asrwt>0</asrwt>
<pdfrwt beam="2">  1       21 0.29383233E-03 0.22828945E+02</pdfrwt>
<pdfrwt beam="1">  1        2 0.44135930E-01 0.22828945E+02</pdfrwt>
<totfact> 0.22944375E+07</totfact>
</mgrwt>
</event>
<event>
 4    1  0.2177230E+006  0.2033572E+02  0.7546771E-02  0.1738733E+00
         -4   -1    0    0    0  501 -0.00000000000E+00  0.00000000000E+00  0.46473222062E+03  0.46473222062E+03  0.00000000000E+00 0.  1.
         21   -1    0    0  503  502  0.00000000000E+00 -0.00000000000E+00 -0.21577139468E+02  0.21577139468E+02  0.00000000000E+00 0. -1.
         21    1    1    2  503  501  0.75425675269E+01  0.18885212207E+02 -0.16510457494E+02  0.26194212561E+02  0.00000000000E+00 0. -1.
         -4    1    1    2    0  502 -0.75425675269E+01 -0.18885212207E+02  0.45966553864E+03  0.46011514752E+03  0.00000000000E+00 0.  1.
<mgrwt>
<rscale>  2 0.20335721E+02</rscale>
<asrwt>0</asrwt>
<pdfrwt beam="2">  1       21 0.33195603E-02 0.20335721E+02</pdfrwt>
<pdfrwt beam="1">  1       -4 0.71497257E-01 0.20335721E+02</pdfrwt>
<totfact> 0.26752416E+04</totfact>
</mgrwt>
</event>
<event>
 4    1  0.2177230E+006  0.2194595E+02  0.7546771E-02  0.1709188E+00
          1   -1    0    0  503    0 -0.00000000000E+00  0.00000000000E+00  0.20042534165E+03  0.20042534165E+03  0.00000000000E+00 0.  1.
         21   -1    0    0  501  502  0.00000000000E+00 -0.00000000000E+00 -0.16087442005E+02  0.16087442005E+02  0.00000000000E+00 0.  1.
         21    1    1    2  503  502 -0.21729453275E+02 -0.30749711243E+01 -0.76753786403E+01  0.23249430624E+02  0.00000000000E+00 0.  1.
          1    1    1    2  501    0  0.21729453275E+02  0.30749711243E+01  0.19201327829E+03  0.19326335304E+03  0.00000000000E+00 0.  1.
<mgrwt>
<rscale>  2 0.21945947E+02</rscale>
<asrwt>0</asrwt>
<pdfrwt beam="2">  1       21 0.24749912E-02 0.21945947E+02</pdfrwt>
<pdfrwt beam="1">  1        1 0.30834666E-01 0.21945947E+02</pdfrwt>
<totfact> 0.10239512E+06</totfact>
</mgrwt>
</event>
<event>
 4    1  0.2177230E+006  0.3640736E+02  0.7546771E-02  0.1536447E+00
          2   -1    0    0  503    0 -0.00000000000E+00  0.00000000000E+00  0.13096556472E+04  0.13096556472E+04  0.00000000000E+00 0. -1.
         21   -1    0    0  501  502  0.00000000000E+00 -0.00000000000E+00 -0.16154619172E+01  0.16154619172E+01  0.00000000000E+00 0. -1.
         21    1    1    2  503  502 -0.32846855195E+02  0.15702860566E+02  0.25333338227E+03  0.25593612152E+03  0.00000000000E+00 0. -1.
          2    1    1    2  501    0  0.32846855195E+02 -0.15702860566E+02  0.10547068030E+04  0.10553349876E+04  0.00000000000E+00 0. -1.
<mgrwt>
<rscale>  2 0.36407358E+02</rscale>
<asrwt>0</asrwt>
<pdfrwt beam="2">  1       21 0.24853365E-03 0.36407358E+02</pdfrwt>
<pdfrwt beam="1">  1        2 0.20148464E+00 0.36407358E+02</pdfrwt>
<totfact> 0.59807820E+06</totfact>
</mgrwt>
</event>
<event>
 4    1  0.2177230E+006  0.2464468E+02  0.7546771E-02  0.1666159E+00
         21   -1    0    0  503  502  0.00000000000E+00  0.00000000000E+00  0.36449206907E+01  0.36449206907E+01  0.00000000000E+00 0.  1.
         -1   -1    0    0    0  501 -0.00000000000E+00 -0.00000000000E+00 -0.36566112700E+03  0.36566112700E+03  0.00000000000E+00 0.  1.
         21    1    1    2  503  501  0.14095646323E+02 -0.20215663241E+02 -0.44777277777E+02  0.51111299051E+02  0.00000000000E+00 0.  1.
         -1    1    1    2    0  502 -0.14095646323E+02  0.20215663241E+02 -0.31723892853E+03  0.31819474864E+03  0.00000000000E+00 0.  1.
<mgrwt>
<rscale>  2 0.24644681E+02</rscale>
<asrwt>0</asrwt>
<pdfrwt beam="1">  1       21 0.56075693E-03 0.24644681E+02</pdfrwt>
<pdfrwt beam="2">  1       -1 0.56255568E-01 0.24644681E+02</pdfrwt>
<totfact> 0.20300073E+06</totfact>
</mgrwt>
</event>
<event>
 4    1  0.2177230E+006  0.2845515E+02  0.7546771E-02  0.1615821E+00
         -1   -1    0    0    0  501 -0.00000000000E+00  0.00000000000E+00  0.22839124298E+03  0.22839124298E+03  0.00000000000E+00 0.  1.
         21   -1    0    0  501  502  0.00000000000E+00 -0.00000000000E+00 -0.69484756205E+01  0.69484756205E+01  0.00000000000E+00 0.  1.
         21    1    1    2  503  502  0.18733816225E+02 -0.21418210105E+02  0.28370512182E+02  0.40181856054E+02  0.00000000000E+00 0.  1.
         -1    1    1    2    0  503 -0.18733816225E+02  0.21418210105E+02  0.19307225518E+03  0.19515786255E+03  0.00000000000E+00 0.  1.
<mgrwt>
<rscale>  2 0.28455151E+02</rscale>
<asrwt>0</asrwt>
<pdfrwt beam="2">  1       21 0.10689964E-02 0.28455151E+02</pdfrwt>
<pdfrwt beam="1">  1       -1 0.35137108E-01 0.28455151E+02</pdfrwt>
<totfact> 0.17786593E+06</totfact>
</mgrwt>
</event>
<event>
 4    1  0.2177230E+006  0.2580343E+02  0.7546771E-02  0.1649723E+00
          2   -1    0    0  502    0 -0.00000000000E+00  0.00000000000E+00  0.53585491290E+02  0.53585491290E+02  0.00000000000E+00 0.  1.
         21   -1    0    0  503  502  0.00000000000E+00 -0.00000000000E+00 -0.50035154172E+02  0.50035154172E+02  0.00000000000E+00 0. -1.
         21    1    1    2  503  501 -0.22795734016E+02 -0.12090148092E+02 -0.43143756428E+02  0.50271272999E+02  0.00000000000E+00 0. -1.
          2    1    1    2  501    0  0.22795734016E+02  0.12090148092E+02  0.46694093546E+02  0.53349372464E+02  0.00000000000E+00 0.  1.
<mgrwt>
<rscale>  2 0.25803433E+02</rscale>
<asrwt>0</asrwt>
<pdfrwt beam="2">  1       21 0.76977160E-02 0.25803433E+02</pdfrwt>
<pdfrwt beam="1">  1        2 0.82439218E-02 0.25803433E+02</pdfrwt>
<totfact> 0.96647092E+05</totfact>
</mgrwt>
</event>
<event>
 4    1  0.2177230E+006  0.2208358E+02  0.7546771E-02  0.1706811E+00
         -1   -1    0    0    0  501 -0.00000000000E+00  0.00000000000E+00  0.26686334128E+03  0.26686334128E+03  0.00000000000E+00 0.  1.
         21   -1    0    0  503  502  0.00000000000E+00 -0.00000000000E+00 -0.58953912480E+02  0.58953912480E+02  0.00000000000E+00 0.  1.
         21    1    1    2  503  501  0.21892140739E+02  0.29015019731E+01 -0.56409093303E+02  0.60577804080E+02  0.00000000000E+00 0.  1.
         -1    1    1    2    0  502 -0.21892140739E+02 -0.29015019731E+01  0.26431852210E+03  0.26523944968E+03  0.00000000000E+00 0.  1.
<mgrwt>
<rscale>  2 0.22083581E+02</rscale>
<asrwt>0</asrwt>
<pdfrwt beam="2">  1       21 0.90698328E-02 0.22083581E+02</pdfrwt>
<pdfrwt beam="1">  1       -1 0.41055898E-01 0.22083581E+02</pdfrwt>
<totfact> 0.45933234E+04</totfact>
</mgrwt>
</event>
<event>
 4    1  0.2177230E+006  0.2086290E+02  0.7546771E-02  0.1728693E+00
         -3   -1    0    0    0  501 -0.00000000000E+00  0.00000000000E+00  0.39106122431E+03  0.39106122431E+03  0.00000000000E+00 0. -1.
         21   -1    0    0  503  502  0.00000000000E+00 -0.00000000000E+00 -0.13169866168E+02  0.13169866168E+02  0.00000000000E+00 0.  1.
         21    1    1    2  503  501 -0.53305186590E+00 -0.20856085810E+02 -0.44406759039E+01  0.21330261651E+02  0.00000000000E+00 0.  1.
         -3    1    1    2    0  502  0.53305186590E+00  0.20856085810E+02  0.38233203404E+03  0.38290082882E+03  0.00000000000E+00 0. -1.
<mgrwt>
<rscale>  2 0.20862897E+02</rscale>
<asrwt>0</asrwt>
<pdfrwt beam="2">  1       21 0.20261336E-02 0.20862897E+02</pdfrwt>
<pdfrwt beam="1">  1       -3 0.60163257E-01 0.20862897E+02</pdfrwt>
<totfact> 0.10816412E+05</totfact>
</mgrwt>
</event>
<event>
 4    1  0.2177230E+006  0.3417240E+02  0.7546771E-02  0.1556075E+00
          1   -1    0    0  502    0 -0.00000000000E+00  0.00000000000E+00  0.17078429674E+04  0.17078429674E+04  0.00000000000E+00 0. -1.
         21   -1    0    0  503  502  0.00000000000E+00 -0.00000000000E+00 -0.98797137476E+00  0.98797137476E+00  0.00000000000E+00 0. -1.
         21    1    1    2  503  501 -0.19607946966E+01  0.34116103824E+02  0.37931079800E+03  0.38084699649E+03  0.00000000000E+00 0. -1.
          1    1    1    2  501    0  0.19607946966E+01 -0.34116103824E+02  0.13275441981E+04  0.13279839423E+04  0.00000000000E+00 0. -1.
<mgrwt>
<rscale>  2 0.34172405E+02</rscale>
<asrwt>0</asrwt>
<pdfrwt beam="2">  1       21 0.15199696E-03 0.34172405E+02</pdfrwt>
<pdfrwt beam="1">  1        1 0.26274271E+00 0.34172405E+02</pdfrwt>
<totfact> 0.34816880E+06</totfact>
</mgrwt>
</event>
<event>
 4    1  0.2177230E+006  0.4191156E+02  0.7546771E-02  0.1494598E+00
          1   -1    0    0  503    0 -0.00000000000E+00  0.00000000000E+00  0.88372644310E+01  0.88372644310E+01  0.00000000000E+00 0.  1.
         21   -1    0    0  501  502  0.00000000000E+00 -0.00000000000E+00 -0.32878600009E+03  0.32878600009E+03  0.00000000000E+00 0. -1.
         21    1    1    2  503  502 -0.96344798289E+01  0.40789162385E+02 -0.26613045016E+03  0.26941045910E+03  0.00000000000E+00 0. -1.
          1    1    1    2  501    0  0.96344798289E+01 -0.40789162385E+02 -0.53818285506E+02  0.68212805429E+02  0.00000000000E+00 0.  1.
<mgrwt>
<rscale>  2 0.41911561E+02</rscale>
<asrwt>0</asrwt>
<pdfrwt beam="2">  1       21 0.50582461E-01 0.41911561E+02</pdfrwt>
<pdfrwt beam="1">  1        1 0.13595792E-02 0.41911561E+02</pdfrwt>
<totfact> 0.34815876E+05</totfact>
</mgrwt>
</event>
<event>
 4    1  0.2177230E+006  0.2751250E+02  0.7546771E-02  0.1627333E+00
         -2   -1    0    0    0  501 -0.00000000000E+00  0.00000000000E+00  0.88033377752E+02  0.88033377752E+02  0.00000000000E+00 0. -1.
         21   -1    0    0  503  502  0.00000000000E+00 -0.00000000000E+00 -0.37446909189E+02  0.37446909189E+02  0.00000000000E+00 0. -1.
         21    1    1    2  503  501 -0.16146212715E+02 -0.22276388118E+02 -0.29774845967E+02  0.40539845892E+02  0.00000000000E+00 0. -1.
         -2    1    1    2    0  502  0.16146212715E+02  0.22276388118E+02  0.80361314529E+02  0.84940441049E+02  0.00000000000E+00 0. -1.
<mgrwt>
<rscale>  2 0.27512500E+02</rscale>
<asrwt>0</asrwt>
<pdfrwt beam="2">  1       21 0.57610630E-02 0.27512500E+02</pdfrwt>
<pdfrwt beam="1">  1       -2 0.13543597E-01 0.27512500E+02</pdfrwt>
<totfact> 0.52382290E+05</totfact>
</mgrwt>
</event>
<event>
 4    1  0.2177230E+006  0.2556569E+02  0.7546771E-02  0.1653007E+00
         21   -1    0    0  501  502  0.00000000000E+00  0.00000000000E+00  0.55255527788E+01  0.55255527788E+01  0.00000000000E+00 0.  1.
          1   -1    0    0  503    0 -0.00000000000E+00 -0.00000000000E+00 -0.22035854122E+03  0.22035854122E+03  0.00000000000E+00 0.  1.
         21    1    1    2  503  502  0.82121105009E+01 -0.24210856077E+02 -0.30549164296E+02  0.39835358038E+02  0.00000000000E+00 0.  1.
          1    1    1    2  501    0 -0.82121105009E+01  0.24210856077E+02 -0.18428382414E+03  0.18604873596E+03  0.00000000000E+00 0.  1.
<mgrwt>
<rscale>  2 0.25565686E+02</rscale>
<asrwt>0</asrwt>
<pdfrwt beam="1">  1       21 0.85008512E-03 0.25565686E+02</pdfrwt>
<pdfrwt beam="2">  1        1 0.33901311E-01 0.25565686E+02</pdfrwt>
<totfact> 0.48263790E+06</totfact>
</mgrwt>
</event>
<event>
 4    1  0.2177230E+006  0.2031383E+02  0.7546771E-02  0.1739158E+00
         21   -1    0    0  503  502  0.00000000000E+00  0.00000000000E+00  0.21890770644E+02  0.21890770644E+02  0.00000000000E+00 0.  1.
         -1   -1    0    0    0  501 -0.00000000000E+00 -0.00000000000E+00 -0.38635572510E+02  0.38635572510E+02  0.00000000000E+00 0.  1.
         21    1    1    2  503  501 -0.12594677301E+02  0.15938190599E+02  0.13284168664E+02  0.24271813962E+02  0.00000000000E+00 0.  1.
         -1    1    1    2    0  502  0.12594677301E+02 -0.15938190599E+02 -0.30028970530E+02  0.36254529192E+02  0.00000000000E+00 0.  1.
<mgrwt>
<rscale>  2 0.20313833E+02</rscale>
<asrwt>0</asrwt>
<pdfrwt beam="1">  1       21 0.33678109E-02 0.20313833E+02</pdfrwt>
<pdfrwt beam="2">  1       -1 0.59439342E-02 0.20313833E+02</pdfrwt>
<totfact> 0.39656700E+06</totfact>
</mgrwt>
</event>
<event>
 4    1  0.2177230E+006  0.3758734E+02  0.7546771E-02  0.1526756E+00
         21   -1    0    0  501  502  0.00000000000E+00  0.00000000000E+00  0.20318925877E+03  0.20318925877E+03  0.00000000000E+00 0. -1.
         -4   -1    0    0    0  501 -0.00000000000E+00 -0.00000000000E+00 -0.47861253164E+02  0.47861253164E+02  0.00000000000E+00 0. -1.
         21    1    1    2  503  502  0.37404457712E+02  0.37033500957E+01  0.19371361119E+03  0.19732656035E+03  0.00000000000E+00 0. -1.
         -4    1    1    2    0  503 -0.37404457712E+02 -0.37033500957E+01 -0.38385605580E+02  0.53723951590E+02  0.00000000000E+00 0. -1.
<mgrwt>
<rscale>  2 0.37587342E+02</rscale>
<asrwt>0</asrwt>
<pdfrwt beam="1">  1       21 0.31259885E-01 0.37587342E+02</pdfrwt>
<pdfrwt beam="2">  1       -4 0.73632698E-02 0.37587342E+02</pdfrwt>
<totfact> 0.41435572E+04</totfact>
</mgrwt>
</event>
<event>
 4    1  0.2177230E+006  0.2416330E+02  0.7546771E-02  0.1673319E+00
         21   -1    0    0  501  502  0.00000000000E+00  0.00000000000E+00  0.17968329501E+02  0.17968329501E+02  0.00000000000E+00 0.  1.
          3   -1    0    0  503    0 -0.00000000000E+00 -0.00000000000E+00 -0.39644186494E+02  0.39644186494E+02  0.00000000000E+00 0.  1.
         21    1    1    2  503  502  0.21203683941E+02  0.11587443161E+02  0.13956112346E+01  0.24203569621E+02  0.00000000000E+00 0.  1.
          3    1    1    2  501    0 -0.21203683941E+02 -0.11587443161E+02 -0.23071468228E+02  0.33408946375E+02  0.00000000000E+00 0.  1.
<mgrwt>
<rscale>  2 0.24163300E+02</rscale>
<asrwt>0</asrwt>
<pdfrwt beam="1">  1       21 0.27643585E-02 0.24163300E+02</pdfrwt>
<pdfrwt beam="2">  1        3 0.60991055E-02 0.24163300E+02</pdfrwt>
<totfact> 0.33859049E+06</totfact>
</mgrwt>
</event>
<event>
 4    1  0.2177230E+006  0.1220891E+03  0.7546771E-02  0.1239690E+00
         21   -1    0    0  503  502  0.00000000000E+00  0.00000000000E+00  0.58625874304E+02  0.58625874304E+02  0.00000000000E+00 0.  1.
          1   -1    0    0  502    0 -0.00000000000E+00 -0.00000000000E+00 -0.18442486002E+04  0.18442486002E+04  0.00000000000E+00 0.  1.
         21    1    1    2  503  501 -0.12123509990E+03 -0.14415140256E+02 -0.93887502485E+01  0.12244955838E+03  0.00000000000E+00 0.  1.
          1    1    1    2  501    0  0.12123509990E+03  0.14415140256E+02 -0.17762339756E+04  0.17804249161E+04  0.00000000000E+00 0.  1.
<mgrwt>
<rscale>  2 0.12208909E+03</rscale>
<asrwt>0</asrwt>
<pdfrwt beam="1">  1       21 0.90193661E-02 0.12208909E+03</pdfrwt>
<pdfrwt beam="2">  1        1 0.28373053E+00 0.12208909E+03</pdfrwt>
<totfact> 0.49129258E+03</totfact>
</mgrwt>
</event>
<event>
 4    1  0.2177230E+006  0.2274231E+02  0.7546771E-02  0.1695722E+00
         21   -1    0    0  501  502  0.00000000000E+00  0.00000000000E+00  0.10950794649E+02  0.10950794649E+02  0.00000000000E+00 0. -1.
          1   -1    0    0  503    0 -0.00000000000E+00 -0.00000000000E+00 -0.11127134606E+04  0.11127134606E+04  0.00000000000E+00 0. -1.
         21    1    1    2  503  502  0.19403773330E+02  0.11861959366E+02 -0.11023479752E+01  0.22769006797E+02  0.00000000000E+00 0. -1.
          1    1    1    2  501    0 -0.19403773330E+02 -0.11861959366E+02 -0.11006603180E+04  0.11008952485E+04  0.00000000000E+00 0. -1.
<mgrwt>
<rscale>  2 0.22742306E+02</rscale>
<asrwt>0</asrwt>
<pdfrwt beam="1">  1       21 0.16847375E-02 0.22742306E+02</pdfrwt>
<pdfrwt beam="2">  1        1 0.17118670E+00 0.22742306E+02</pdfrwt>
<totfact> 0.21459808E+05</totfact>
</mgrwt>
</event>
<event>
 4    1  0.2177230E+006  0.2123073E+02  0.7546771E-02  0.1721906E+00
          1   -1    0    0  503    0 -0.00000000000E+00  0.00000000000E+00  0.27880327555E+03  0.27880327555E+03  0.00000000000E+00 0.  1.
         21   -1    0    0  501  502  0.00000000000E+00 -0.00000000000E+00 -0.40836676998E+02  0.40836676998E+02  0.00000000000E+00 0.  1.
         21    1    1    2  503  502  0.11069581703E+02 -0.18116523984E+02 -0.37641120654E+02  0.43215715248E+02  0.00000000000E+00 0.  1.
          1    1    1    2  501    0 -0.11069581703E+02  0.18116523984E+02  0.27560771921E+03  0.27642423730E+03  0.00000000000E+00 0.  1.
<mgrwt>
<rscale>  2 0.21230734E+02</rscale>
<asrwt>0</asrwt>
<pdfrwt beam="2">  1       21 0.62825659E-02 0.21230734E+02</pdfrwt>
<pdfrwt beam="1">  1        1 0.42892810E-01 0.21230734E+02</pdfrwt>
<totfact> 0.16094633E+05</totfact>
</mgrwt>
</event>
<event>
 4    1  0.2177230E+006  0.2273913E+02  0.7546771E-02  0.1695774E+00
          1   -1    0    0  503    0 -0.00000000000E+00  0.00000000000E+00  0.14104562242E+03  0.14104562242E+03  0.00000000000E+00 0.  1.
         21   -1    0    0  501  502  0.00000000000E+00 -0.00000000000E+00 -0.51159635253E+01  0.51159635253E+01  0.00000000000E+00 0.  1.
         21    1    1    2  503  502 -0.14727406368E+02  0.17325457955E+02  0.29058195841E+02  0.36897787701E+02  0.00000000000E+00 0.  1.
          1    1    1    2  501    0  0.14727406368E+02 -0.17325457955E+02  0.10687146305E+03  0.10926379824E+03  0.00000000000E+00 0.  1.
<mgrwt>
<rscale>  2 0.22739129E+02</rscale>
<asrwt>0</asrwt>
<pdfrwt beam="2">  1       21 0.78707142E-03 0.22739129E+02</pdfrwt>
<pdfrwt beam="1">  1        1 0.21699323E-01 0.22739129E+02</pdfrwt>
<totfact> 0.88530096E+06</totfact>
</mgrwt>
</event>
<event>
 4    1  0.2177230E+006  0.2195907E+02  0.7546771E-02  0.1708961E+00
         21   -1    0    0  501  502  0.00000000000E+00  0.00000000000E+00  0.82775228670E+02  0.82775228670E+02  0.00000000000E+00 0.  1.
          2   -1    0    0  503    0 -0.00000000000E+00 -0.00000000000E+00 -0.85332988679E+03  0.85332988679E+03  0.00000000000E+00 0.  1.
         21    1    1    2  503  502  0.21264768728E+02 -0.54781769830E+01  0.81174866330E+02  0.84092566472E+02  0.00000000000E+00 0.  1.
          2    1    1    2  501    0 -0.21264768728E+02  0.54781769830E+01 -0.85172952445E+03  0.85201254898E+03  0.00000000000E+00 0.  1.
<mgrwt>
<rscale>  2 0.21959071E+02</rscale>
<asrwt>0</asrwt>
<pdfrwt beam="1">  1       21 0.12734650E-01 0.21959071E+02</pdfrwt>
<pdfrwt beam="2">  1        2 0.13128152E+00 0.21959071E+02</pdfrwt>
<totfact> 0.22181016E+04</totfact>
</mgrwt>
</event>
<event>
 4    1  0.2177230E+006  0.2910301E+02  0.7546771E-02  0.1608221E+00
         21   -1    0    0  503  502  0.00000000000E+00  0.00000000000E+00  0.10472926147E+02  0.10472926147E+02  0.00000000000E+00 0.  1.
         -3   -1    0    0    0  501 -0.00000000000E+00 -0.00000000000E+00 -0.46058293726E+03  0.46058293726E+03  0.00000000000E+00 0. -1.
         21    1    1    2  503  501  0.27916522837E+02  0.82251375054E+01 -0.11202653722E+02  0.31184685099E+02  0.00000000000E+00 0.  1.
         -3    1    1    2    0  502 -0.27916522837E+02 -0.82251375054E+01 -0.43890735739E+03  0.43987117830E+03  0.00000000000E+00 0. -1.
<mgrwt>
<rscale>  2 0.29103009E+02</rscale>
<asrwt>0</asrwt>
<pdfrwt beam="1">  1       21 0.16112195E-02 0.29103009E+02</pdfrwt>
<pdfrwt beam="2">  1       -3 0.70858909E-01 0.29103009E+02</pdfrwt>
<totfact> 0.12147537E+05</totfact>
</mgrwt>
</event>
<event>
 4    1  0.2177230E+006  0.2123069E+02  0.7546771E-02  0.1721907E+00
         21   -1    0    0  501  502  0.00000000000E+00  0.00000000000E+00  0.47471100934E+02  0.47471100934E+02  0.00000000000E+00 0.  1.
          1   -1    0    0  503    0 -0.00000000000E+00 -0.00000000000E+00 -0.85598905770E+02  0.85598905770E+02  0.00000000000E+00 0.  1.
         21    1    1    2  503  502  0.21046094700E+02  0.27935692686E+01  0.43672456195E+02  0.48559505367E+02  0.00000000000E+00 0.  1.
          1    1    1    2  501    0 -0.21046094700E+02 -0.27935692686E+01 -0.81800261032E+02  0.84510501337E+02  0.00000000000E+00 0.  1.
<mgrwt>
<rscale>  2 0.21230688E+02</rscale>
<asrwt>0</asrwt>
<pdfrwt beam="1">  1       21 0.73032464E-02 0.21230688E+02</pdfrwt>
<pdfrwt beam="2">  1        1 0.13169062E-01 0.21230688E+02</pdfrwt>
<totfact> 0.50678994E+05</totfact>
</mgrwt>
</event>
<event>
 4    1  0.2177230E+006  0.2410232E+02  0.7546771E-02  0.1674241E+00
         21   -1    0    0  503  502  0.00000000000E+00  0.00000000000E+00  0.15906293017E+02  0.15906293017E+02  0.00000000000E+00 0.  1.
          2   -1    0    0  502    0 -0.00000000000E+00 -0.00000000000E+00 -0.11286365996E+03  0.11286365996E+03  0.00000000000E+00 0.  1.
         21    1    1    2  503  501  0.46726605768E+00 -0.24097787624E+02  0.44742097333E+01  0.24514082864E+02  0.00000000000E+00 0.  1.
          2    1    1    2  501    0 -0.46726605768E+00  0.24097787624E+02 -0.10143157667E+03  0.10425587011E+03  0.00000000000E+00 0.  1.
<mgrwt>
<rscale>  2 0.24102317E+02</rscale>
<asrwt>0</asrwt>
<pdfrwt beam="1">  1       21 0.24471220E-02 0.24102317E+02</pdfrwt>
<pdfrwt beam="2">  1        2 0.17363640E-01 0.24102317E+02</pdfrwt>
<totfact> 0.25324568E+06</totfact>
</mgrwt>
</event>
<event>
 4    1  0.2177230E+006  0.2405378E+02  0.7546771E-02  0.1674977E+00
         21   -1    0    0  503  502  0.00000000000E+00  0.00000000000E+00  0.15501550624E+02  0.15501550624E+02  0.00000000000E+00 0.  1.
          1   -1    0    0  502    0 -0.00000000000E+00 -0.00000000000E+00 -0.39006990394E+02  0.39006990394E+02  0.00000000000E+00 0.  1.
         21    1    1    2  503  501 -0.20292578367E+02  0.12914928037E+02 -0.60920351317E+01  0.24813242332E+02  0.00000000000E+00 0.  1.
          1    1    1    2  501    0  0.20292578367E+02 -0.12914928037E+02 -0.17413404638E+02  0.29695298686E+02  0.00000000000E+00 0.  1.
<mgrwt>
<rscale>  2 0.24053775E+02</rscale>
<asrwt>0</asrwt>
<pdfrwt beam="1">  1       21 0.23848539E-02 0.24053775E+02</pdfrwt>
<pdfrwt beam="2">  1        1 0.60010754E-02 0.24053775E+02</pdfrwt>
<totfact> 0.81708190E+06</totfact>
</mgrwt>
</event>
<event>
 4    1  0.2177230E+006  0.3079592E+02  0.7546771E-02  0.1589454E+00
         21   -1    0    0  503  502  0.00000000000E+00  0.00000000000E+00  0.81823430382E+01  0.81823430382E+01  0.00000000000E+00 0.  1.
          1   -1    0    0  502    0 -0.00000000000E+00 -0.00000000000E+00 -0.17258080789E+04  0.17258080789E+04  0.00000000000E+00 0. -1.
         21    1    1    2  503  501  0.28538522960E+02  0.11573302467E+02 -0.21437692282E+02  0.37522836688E+02  0.00000000000E+00 0.  1.
          1    1    1    2  501    0 -0.28538522960E+02 -0.11573302467E+02 -0.16961880436E+04  0.16964675853E+04  0.00000000000E+00 0. -1.
<mgrwt>
<rscale>  2 0.30795919E+02</rscale>
<asrwt>0</asrwt>
<pdfrwt beam="1">  1       21 0.12588198E-02 0.30795919E+02</pdfrwt>
<pdfrwt beam="2">  1        1 0.26550940E+00 0.30795919E+02</pdfrwt>
<totfact> 0.14467685E+05</totfact>
</mgrwt>
</event>
<event>
 4    1  0.2177230E+006  0.3232005E+02  0.7546771E-02  0.1573774E+00
          2   -1    0    0  502    0 -0.00000000000E+00  0.00000000000E+00  0.12617111283E+04  0.12617111283E+04  0.00000000000E+00 0.  1.
         21   -1    0    0  503  502  0.00000000000E+00 -0.00000000000E+00 -0.25200569952E+01  0.25200569952E+01  0.00000000000E+00 0. -1.
         21    1    1    2  503  501 -0.20199566032E+01  0.32256869934E+02  0.11161898572E+03  0.11620406127E+03  0.00000000000E+00 0. -1.
          2    1    1    2  501    0  0.20199566032E+01 -0.32256869934E+02  0.11475720856E+04  0.11480271240E+04  0.00000000000E+00 0.  1.
<mgrwt>
<rscale>  2 0.32320054E+02</rscale>
<asrwt>0</asrwt>
<pdfrwt beam="2">  1       21 0.38770208E-03 0.32320054E+02</pdfrwt>
<pdfrwt beam="1">  1        2 0.19410890E+00 0.32320054E+02</pdfrwt>
<totfact> 0.32142077E+06</totfact>
</mgrwt>
</event>
<event>
 4    1  0.2177230E+006  0.2662089E+02  0.7546771E-02  0.1638756E+00
         -3   -1    0    0    0  501 -0.00000000000E+00  0.00000000000E+00  0.34781384820E+02  0.34781384820E+02  0.00000000000E+00 0.  1.
         21   -1    0    0  501  502  0.00000000000E+00 -0.00000000000E+00 -0.54592079205E+03  0.54592079205E+03  0.00000000000E+00 0.  1.
         21    1    1    2  503  502 -0.23400647881E+02 -0.12691797424E+02 -0.54045098006E+03  0.54110621313E+03  0.00000000000E+00 0.  1.
         -3    1    1    2    0  503  0.23400647881E+02  0.12691797424E+02  0.29311572826E+02  0.39595963741E+02  0.00000000000E+00 0.  1.
<mgrwt>
<rscale>  2 0.26620895E+02</rscale>
<asrwt>0</asrwt>
<pdfrwt beam="2">  1       21 0.83987809E-01 0.26620895E+02</pdfrwt>
<pdfrwt beam="1">  1       -3 0.53509826E-02 0.26620895E+02</pdfrwt>
<totfact> 0.10646550E+04</totfact>
</mgrwt>
</event>
<event>
 4    1  0.2177230E+006  0.2832025E+02  0.7546771E-02  0.1617434E+00
          2   -1    0    0  503    0 -0.00000000000E+00  0.00000000000E+00  0.19935325896E+04  0.19935325896E+04  0.00000000000E+00 0. -1.
         21   -1    0    0  501  502  0.00000000000E+00 -0.00000000000E+00 -0.50836259581E+01  0.50836259581E+01  0.00000000000E+00 0.  1.
         21    1    1    2  503  502 -0.23420867859E+02 -0.15921664893E+02  0.35274033808E+02  0.45235980429E+02  0.00000000000E+00 0.  1.
          2    1    1    2  501    0  0.23420867859E+02  0.15921664893E+02  0.19531749299E+04  0.19533802352E+04  0.00000000000E+00 0. -1.
<mgrwt>
<rscale>  2 0.28320248E+02</rscale>
<asrwt>0</asrwt>
<pdfrwt beam="2">  1       21 0.78209789E-03 0.28320248E+02</pdfrwt>
<pdfrwt beam="1">  1        2 0.30669670E+00 0.28320248E+02</pdfrwt>
<totfact> 0.49497845E+05</totfact>
</mgrwt>
</event>
<event>
 4    1  0.2177230E+006  0.2209042E+02  0.7546771E-02  0.1706693E+00
          2   -1    0    0  503    0 -0.00000000000E+00  0.00000000000E+00  0.24052899604E+03  0.24052899604E+03  0.00000000000E+00 0.  1.
         21   -1    0    0  501  502  0.00000000000E+00 -0.00000000000E+00 -0.39273042288E+01  0.39273042288E+01  0.00000000000E+00 0.  1.
         21    1    1    2  503  502  0.11004632372E+02  0.19154229510E+02  0.33318410428E+02  0.39976279407E+02  0.00000000000E+00 0.  1.
          2    1    1    2  501    0 -0.11004632372E+02 -0.19154229510E+02  0.20328328138E+03  0.20448002086E+03  0.00000000000E+00 0.  1.
<mgrwt>
<rscale>  2 0.22090415E+02</rscale>
<asrwt>0</asrwt>
<pdfrwt beam="2">  1       21 0.60420084E-03 0.22090415E+02</pdfrwt>
<pdfrwt beam="1">  1        2 0.37004449E-01 0.22090415E+02</pdfrwt>
<totfact> 0.93882729E+06</totfact>
</mgrwt>
</event>
<event>
 4    1  0.2177230E+006  0.2096654E+02  0.7546771E-02  0.1726763E+00
         21   -1    0    0  503  502  0.00000000000E+00  0.00000000000E+00  0.15522610774E+01  0.15522610774E+01  0.00000000000E+00 0. -1.
         -2   -1    0    0    0  501 -0.00000000000E+00 -0.00000000000E+00 -0.29057402080E+03  0.29057402080E+03  0.00000000000E+00 0. -1.
         21    1    1    2  503  501 -0.14680444492E+02 -0.14969316695E+02 -0.12123807550E+03  0.12303766433E+03  0.00000000000E+00 0. -1.
         -2    1    1    2    0  502  0.14680444492E+02  0.14969316695E+02 -0.16778368422E+03  0.16908861755E+03  0.00000000000E+00 0. -1.
<mgrwt>
<rscale>  2 0.20966542E+02</rscale>
<asrwt>0</asrwt>
<pdfrwt beam="1">  1       21 0.23880939E-03 0.20966542E+02</pdfrwt>
<pdfrwt beam="2">  1       -2 0.44703697E-01 0.20966542E+02</pdfrwt>
<totfact> 0.82541627E+06</totfact>
</mgrwt>
</event>
<event>
 4    1  0.2177230E+006  0.3158359E+02  0.7546771E-02  0.1581216E+00
          2   -1    0    0  502    0 -0.00000000000E+00  0.00000000000E+00  0.14245573766E+03  0.14245573766E+03  0.00000000000E+00 0. -1.
         21   -1    0    0  503  502  0.00000000000E+00 -0.00000000000E+00 -0.10964231707E+02  0.10964231707E+02  0.00000000000E+00 0. -1.
         21    1    1    2  503  501  0.62061148923E+01 -0.30967844225E+02  0.19633727561E+02  0.37188795301E+02  0.00000000000E+00 0. -1.
          2    1    1    2  501    0 -0.62061148923E+01  0.30967844225E+02  0.11185777839E+03  0.11623117407E+03  0.00000000000E+00 0. -1.
<mgrwt>
<rscale>  2 0.31583591E+02</rscale>
<asrwt>0</asrwt>
<pdfrwt beam="2">  1       21 0.16868050E-02 0.31583591E+02</pdfrwt>
<pdfrwt beam="1">  1        2 0.21916266E-01 0.31583591E+02</pdfrwt>
<totfact> 0.37289145E+06</totfact>
</mgrwt>
</event>
<event>
 4    1  0.2177230E+006  0.2433679E+02  0.7546771E-02  0.1670715E+00
         -2   -1    0    0    0  501 -0.00000000000E+00  0.00000000000E+00  0.11838348162E+03  0.11838348162E+03  0.00000000000E+00 0.  1.
         21   -1    0    0  503  502  0.00000000000E+00 -0.00000000000E+00 -0.50381146550E+01  0.50381146550E+01  0.00000000000E+00 0. -1.
         21    1    1    2  503  501 -0.21701479081E+01  0.24239836989E+02  0.51524878484E+02  0.56983263701E+02  0.00000000000E+00 0. -1.
         -2    1    1    2    0  502  0.21701479081E+01 -0.24239836989E+02  0.61820488481E+02  0.66438332574E+02  0.00000000000E+00 0.  1.
<mgrwt>
<rscale>  2 0.24336788E+02</rscale>
<asrwt>0</asrwt>
<pdfrwt beam="2">  1       21 0.77509465E-03 0.24336788E+02</pdfrwt>
<pdfrwt beam="1">  1       -2 0.18212841E-01 0.24336788E+02</pdfrwt>
<totfact> 0.71181848E+06</totfact>
</mgrwt>
</event>
<event>
 4    1  0.2177230E+006  0.4119549E+02  0.7546771E-02  0.1499594E+00
          2   -1    0    0  503    0 -0.00000000000E+00  0.00000000000E+00  0.16452945664E+03  0.16452945664E+03  0.00000000000E+00 0. -1.
         21   -1    0    0  501  502  0.00000000000E+00 -0.00000000000E+00 -0.17977496385E+02  0.17977496385E+02  0.00000000000E+00 0. -1.
         21    1    1    2  503  502  0.46927034952E+01 -0.40927339649E+02  0.13698923888E+02  0.43413466949E+02  0.00000000000E+00 0. -1.
          2    1    1    2  501    0 -0.46927034952E+01  0.40927339649E+02  0.13285303637E+03  0.13909348608E+03  0.00000000000E+00 0. -1.
<mgrwt>
<rscale>  2 0.41195492E+02</rscale>
<asrwt>0</asrwt>
<pdfrwt beam="2">  1       21 0.27657688E-02 0.41195492E+02</pdfrwt>
<pdfrwt beam="1">  1        2 0.25312223E-01 0.41195492E+02</pdfrwt>
<totfact> 0.15555428E+06</totfact>
</mgrwt>
</event>
<event>
 4    1  0.2177230E+006  0.3307555E+02  0.7546771E-02  0.1566386E+00
         -2   -1    0    0    0  501 -0.00000000000E+00  0.00000000000E+00  0.12027612247E+02  0.12027612247E+02  0.00000000000E+00 0.  1.
         21   -1    0    0  503  502  0.00000000000E+00 -0.00000000000E+00 -0.17685842793E+03  0.17685842793E+03  0.00000000000E+00 0. -1.
         21    1    1    2  503  501 -0.12003511669E+02 -0.30820569765E+02 -0.14823542004E+03  0.15188064909E+03  0.00000000000E+00 0. -1.
         -2    1    1    2    0  502  0.12003511669E+02  0.30820569765E+02 -0.16595395642E+02  0.37005391087E+02  0.00000000000E+00 0.  1.
<mgrwt>
<rscale>  2 0.33075547E+02</rscale>
<asrwt>0</asrwt>
<pdfrwt beam="2">  1       21 0.27208985E-01 0.33075547E+02</pdfrwt>
<pdfrwt beam="1">  1       -2 0.18504021E-02 0.33075547E+02</pdfrwt>
<totfact> 0.68187546E+05</totfact>
</mgrwt>
</event>
<event>
 4    1  0.2177230E+006  0.2381623E+02  0.7546771E-02  0.1678611E+00
         21   -1    0    0  501  502  0.00000000000E+00  0.00000000000E+00  0.82889234344E+01  0.82889234344E+01  0.00000000000E+00 0. -1.
          3   -1    0    0  503    0 -0.00000000000E+00 -0.00000000000E+00 -0.78976120767E+02  0.78976120767E+02  0.00000000000E+00 0. -1.
         21    1    1    2  503  502  0.22071457555E+02  0.89478279692E+01 -0.19399343560E+02  0.30717216582E+02  0.00000000000E+00 0. -1.
          3    1    1    2  501    0 -0.22071457555E+02 -0.89478279692E+01 -0.51287853772E+02  0.56547827619E+02  0.00000000000E+00 0. -1.
<mgrwt>
<rscale>  2 0.23816231E+02</rscale>
<asrwt>0</asrwt>
<pdfrwt beam="1">  1       21 0.12752189E-02 0.23816231E+02</pdfrwt>
<pdfrwt beam="2">  1        3 0.12150173E-01 0.23816231E+02</pdfrwt>
<totfact> 0.37668058E+06</totfact>
</mgrwt>
</event>
<event>
 4    1  0.2177230E+006  0.3373719E+02  0.7546771E-02  0.1560109E+00
         21   -1    0    0  503  502  0.00000000000E+00  0.00000000000E+00  0.23159710531E+01  0.23159710531E+01  0.00000000000E+00 0.  1.
          1   -1    0    0  502    0 -0.00000000000E+00 -0.00000000000E+00 -0.11062446213E+04  0.11062446213E+04  0.00000000000E+00 0.  1.
         21    1    1    2  503  501  0.18048514786E+02 -0.28503487544E+02 -0.13875816021E+03  0.14280064675E+03  0.00000000000E+00 0.  1.
          1    1    1    2  501    0 -0.18048514786E+02  0.28503487544E+02 -0.96517049001E+03  0.96575994557E+03  0.00000000000E+00 0.  1.
<mgrwt>
<rscale>  2 0.33737186E+02</rscale>
<asrwt>0</asrwt>
<pdfrwt beam="1">  1       21 0.35630142E-03 0.33737186E+02</pdfrwt>
<pdfrwt beam="2">  1        1 0.17019235E+00 0.33737186E+02</pdfrwt>
<totfact> 0.23572103E+06</totfact>
</mgrwt>
</event>
<event>
 4    1  0.2177230E+006  0.2113896E+02  0.7546771E-02  0.1723583E+00
         21   -1    0    0  503  502  0.00000000000E+00  0.00000000000E+00  0.67226203228E+00  0.67226203228E+00  0.00000000000E+00 0. -1.
         -2   -1    0    0    0  501 -0.00000000000E+00 -0.00000000000E+00 -0.76755668652E+03  0.76755668652E+03  0.00000000000E+00 0. -1.
         21    1    1    2  503  501  0.19427415684E+02 -0.83325271566E+01 -0.24283339672E+03  0.24375174676E+03  0.00000000000E+00 0. -1.
         -2    1    1    2    0  502 -0.19427415684E+02  0.83325271566E+01 -0.52405102777E+03  0.52447720178E+03  0.00000000000E+00 0. -1.
<mgrwt>
<rscale>  2 0.21138957E+02</rscale>
<asrwt>0</asrwt>
<pdfrwt beam="1">  1       21 0.10342525E-03 0.21138957E+02</pdfrwt>
<pdfrwt beam="2">  1       -2 0.11808528E+00 0.21138957E+02</pdfrwt>
<totfact> 0.36936116E+06</totfact>
</mgrwt>
</event>
<event>
 4    1  0.2177230E+006  0.2310280E+02  0.7546771E-02  0.1689849E+00
          3   -1    0    0  503    0 -0.00000000000E+00  0.00000000000E+00  0.83287729923E+02  0.83287729923E+02  0.00000000000E+00 0. -1.
         21   -1    0    0  501  502  0.00000000000E+00 -0.00000000000E+00 -0.21950668462E+02  0.21950668462E+02  0.00000000000E+00 0. -1.
         21    1    1    2  503  502 -0.18859222692E+02  0.13344259561E+02 -0.13608431948E+02  0.26812850723E+02  0.00000000000E+00 0. -1.
          3    1    1    2  501    0  0.18859222692E+02 -0.13344259561E+02  0.74945493409E+02  0.78425547662E+02  0.00000000000E+00 0. -1.
<mgrwt>
<rscale>  2 0.23102804E+02</rscale>
<asrwt>0</asrwt>
<pdfrwt beam="2">  1       21 0.33770260E-02 0.23102804E+02</pdfrwt>
<pdfrwt beam="1">  1        3 0.12813497E-01 0.23102804E+02</pdfrwt>
<totfact> 0.76459305E+05</totfact>
</mgrwt>
</event>
<event>
 4    1  0.2177230E+006  0.2335566E+02  0.7546771E-02  0.1685809E+00
          2   -1    0    0  503    0 -0.00000000000E+00  0.00000000000E+00  0.16851045519E+03  0.16851045519E+03  0.00000000000E+00 0.  1.
         21   -1    0    0  501  502  0.00000000000E+00 -0.00000000000E+00 -0.37946068667E+01  0.37946068667E+01  0.00000000000E+00 0. -1.
         21    1    1    2  503  502  0.14377850369E+02 -0.18405548561E+02  0.49335720750E+02  0.54584797710E+02  0.00000000000E+00 0. -1.
          2    1    1    2  501    0 -0.14377850369E+02  0.18405548561E+02  0.11538012757E+03  0.11772026435E+03  0.00000000000E+00 0.  1.
<mgrwt>
<rscale>  2 0.23355659E+02</rscale>
<asrwt>0</asrwt>
<pdfrwt beam="2">  1       21 0.58378580E-03 0.23355659E+02</pdfrwt>
<pdfrwt beam="1">  1        2 0.25924680E-01 0.23355659E+02</pdfrwt>
<totfact> 0.14380045E+07</totfact>
</mgrwt>
</event>
<event>
 4    1  0.2177230E+006  0.2373585E+02  0.7546771E-02  0.1679853E+00
         21   -1    0    0  503  502  0.00000000000E+00  0.00000000000E+00  0.31151007721E+02  0.31151007721E+02  0.00000000000E+00 0.  1.
         -3   -1    0    0    0  501 -0.00000000000E+00 -0.00000000000E+00 -0.18107143697E+02  0.18107143697E+02  0.00000000000E+00 0. -1.
         21    1    1    2  503  501  0.10320569052E+02  0.21374668474E+02  0.56761565021E+01  0.24405109108E+02  0.00000000000E+00 0.  1.
         -3    1    1    2    0  502 -0.10320569052E+02 -0.21374668474E+02  0.73677075223E+01  0.24853042310E+02  0.00000000000E+00 0. -1.
<mgrwt>
<rscale>  2 0.23735850E+02</rscale>
<asrwt>0</asrwt>
<pdfrwt beam="1">  1       21 0.47924627E-02 0.23735850E+02</pdfrwt>
<pdfrwt beam="2">  1       -3 0.27857144E-02 0.23735850E+02</pdfrwt>
<totfact> 0.45689366E+06</totfact>
</mgrwt>
</event>
<event>
 4    1  0.2177230E+006  0.3730977E+02  0.7546771E-02  0.1528996E+00
          3   -1    0    0  502    0 -0.00000000000E+00  0.00000000000E+00  0.15347838063E+03  0.15347838063E+03  0.00000000000E+00 0.  1.
         21   -1    0    0  503  502  0.00000000000E+00 -0.00000000000E+00 -0.16291816784E+02  0.16291816784E+02  0.00000000000E+00 0. -1.
         21    1    1    2  503  501 -0.24179592980E+02 -0.28414196584E+02  0.12076719695E+02  0.39215640283E+02  0.00000000000E+00 0. -1.
          3    1    1    2  501    0  0.24179592980E+02  0.28414196584E+02  0.12510984415E+03  0.13055455713E+03  0.00000000000E+00 0.  1.
<mgrwt>
<rscale>  2 0.37309775E+02</rscale>
<asrwt>0</asrwt>
<pdfrwt beam="2">  1       21 0.25064335E-02 0.37309775E+02</pdfrwt>
<pdfrwt beam="1">  1        3 0.23612058E-01 0.37309775E+02</pdfrwt>
<totfact> 0.50990259E+05</totfact>
</mgrwt>
</event>
<event>
 4    1  0.2177230E+006  0.2268093E+02  0.7546771E-02  0.1696735E+00
          1   -1    0    0  503    0 -0.00000000000E+00  0.00000000000E+00  0.24033854285E+03  0.24033854285E+03  0.00000000000E+00 0.  1.
         21   -1    0    0  501  502  0.00000000000E+00 -0.00000000000E+00 -0.11613834836E+03  0.11613834836E+03  0.00000000000E+00 0. -1.
         21    1    1    2  503  502 -0.20257082158E+02 -0.10201729785E+02 -0.11448825286E+03  0.11671325851E+03  0.00000000000E+00 0. -1.
          1    1    1    2  501    0  0.20257082158E+02  0.10201729785E+02  0.23868844735E+03  0.23976363271E+03  0.00000000000E+00 0.  1.
<mgrwt>
<rscale>  2 0.22680932E+02</rscale>
<asrwt>0</asrwt>
<pdfrwt beam="2">  1       21 0.17867438E-01 0.22680932E+02</pdfrwt>
<pdfrwt beam="1">  1        1 0.36975160E-01 0.22680932E+02</pdfrwt>
<totfact> 0.33909292E+04</totfact>
</mgrwt>
</event>
<event>
 4    1  0.2177230E+006  0.2768212E+02  0.7546771E-02  0.1625220E+00
          2   -1    0    0  502    0 -0.00000000000E+00  0.00000000000E+00  0.19957146384E+04  0.19957146384E+04  0.00000000000E+00 0. -1.
         21   -1    0    0  503  502  0.00000000000E+00 -0.00000000000E+00 -0.17188462450E+01  0.17188462450E+01  0.00000000000E+00 0.  1.
         21    1    1    2  503  501  0.45085641936E+01  0.27312498178E+02  0.11687382822E+03  0.12010741622E+03  0.00000000000E+00 0.  1.
          2    1    1    2  501    0 -0.45085641936E+01 -0.27312498178E+02  0.18771219640E+04  0.18773260685E+04  0.00000000000E+00 0. -1.
<mgrwt>
<rscale>  2 0.27682119E+02</rscale>
<asrwt>0</asrwt>
<pdfrwt beam="2">  1       21 0.26443948E-03 0.27682119E+02</pdfrwt>
<pdfrwt beam="1">  1        2 0.30703117E+00 0.27682119E+02</pdfrwt>
<totfact> 0.24548224E+06</totfact>
</mgrwt>
</event>
<event>
 4    1  0.2177230E+006  0.2329318E+02  0.7546771E-02  0.1686801E+00
          2   -1    0    0  503    0 -0.00000000000E+00  0.00000000000E+00  0.22698320902E+02  0.22698320902E+02  0.00000000000E+00 0.  1.
         21   -1    0    0  501  502  0.00000000000E+00 -0.00000000000E+00 -0.23985699593E+02  0.23985699593E+02  0.00000000000E+00 0.  1.
         21    1    1    2  503  502 -0.21721436352E+02 -0.84113874566E+01  0.72169998100E+00  0.23304357682E+02  0.00000000000E+00 0.  1.
          2    1    1    2  501    0  0.21721436352E+02  0.84113874566E+01 -0.20090786722E+01  0.23379662813E+02  0.00000000000E+00 0.  1.
<mgrwt>
<rscale>  2 0.23293180E+02</rscale>
<asrwt>0</asrwt>
<pdfrwt beam="2">  1       21 0.36901076E-02 0.23293180E+02</pdfrwt>
<pdfrwt beam="1">  1        2 0.34920494E-02 0.23293180E+02</pdfrwt>
<totfact> 0.87173522E+06</totfact>
</mgrwt>
</event>
<event>
 4    1  0.2177230E+006  0.2090721E+02  0.7546771E-02  0.1727866E+00
         21   -1    0    0  503  502  0.00000000000E+00  0.00000000000E+00  0.43103709879E+02  0.43103709879E+02  0.00000000000E+00 0. -1.
         -4   -1    0    0    0  501 -0.00000000000E+00 -0.00000000000E+00 -0.65481603884E+02  0.65481603884E+02  0.00000000000E+00 0.  1.
         21    1    1    2  503  501  0.19583475115E+02  0.73211374024E+01  0.38722904031E+02  0.44006531868E+02  0.00000000000E+00 0. -1.
         -4    1    1    2    0  502 -0.19583475115E+02 -0.73211374024E+01 -0.61100798036E+02  0.64578781895E+02  0.00000000000E+00 0.  1.
<mgrwt>
<rscale>  2 0.20907213E+02</rscale>
<asrwt>0</asrwt>
<pdfrwt beam="1">  1       21 0.66313400E-02 0.20907213E+02</pdfrwt>
<pdfrwt beam="2">  1       -4 0.10074093E-01 0.20907213E+02</pdfrwt>
<totfact> 0.30278802E+05</totfact>
</mgrwt>
</event>
<event>
 4    1  0.2177230E+006  0.2682269E+02  0.7546771E-02  0.1636123E+00
          1   -1    0    0  502    0 -0.00000000000E+00  0.00000000000E+00  0.16265177148E+03  0.16265177148E+03  0.00000000000E+00 0. -1.
         21   -1    0    0  503  502  0.00000000000E+00 -0.00000000000E+00 -0.15920209970E+04  0.15920209970E+04  0.00000000000E+00 0. -1.
         21    1    1    2  503  501 -0.14556810087E+02  0.22528997917E+02 -0.15908013474E+04  0.15910274616E+04  0.00000000000E+00 0. -1.
          1    1    1    2  501    0  0.14556810087E+02 -0.22528997917E+02  0.16143212195E+03  0.16364530688E+03  0.00000000000E+00 0. -1.
<mgrwt>
<rscale>  2 0.26822686E+02</rscale>
<asrwt>0</asrwt>
<pdfrwt beam="2">  1       21 0.24492631E+00 0.26822686E+02</pdfrwt>
<pdfrwt beam="1">  1        1 0.25023349E-01 0.26822686E+02</pdfrwt>
<totfact> 0.21614291E+02</totfact>
</mgrwt>
</event>
<event>
 4    1  0.2177230E+006  0.2452713E+02  0.7546771E-02  0.1667888E+00
         21   -1    0    0  503  502  0.00000000000E+00  0.00000000000E+00  0.10368524270E+04  0.10368524270E+04  0.00000000000E+00 0. -1.
          3   -1    0    0  502    0 -0.00000000000E+00 -0.00000000000E+00 -0.84460901631E+00  0.84460901631E+00  0.00000000000E+00 0. -1.
         21    1    1    2  503  501  0.24429184740E+02  0.21897276188E+01  0.80830741648E+03  0.80867945412E+03  0.00000000000E+00 0. -1.
          3    1    1    2  501    0 -0.24429184740E+02 -0.21897276188E+01  0.22770040149E+03  0.22901758188E+03  0.00000000000E+00 0. -1.
<mgrwt>
<rscale>  2 0.24527127E+02</rscale>
<asrwt>0</asrwt>
<pdfrwt beam="1">  1       21 0.15951474E+00 0.24527127E+02</pdfrwt>
<pdfrwt beam="2">  1        3 0.12994068E-03 0.24527127E+02</pdfrwt>
<totfact> 0.50908413E+05</totfact>
</mgrwt>
</event>
<event>
 4    1  0.2177230E+006  0.2047674E+02  0.7546771E-02  0.1736010E+00
         21   -1    0    0  501  502  0.00000000000E+00  0.00000000000E+00  0.18801562154E+02  0.18801562154E+02  0.00000000000E+00 0.  1.
         -4   -1    0    0    0  501 -0.00000000000E+00 -0.00000000000E+00 -0.30933369494E+02  0.30933369494E+02  0.00000000000E+00 0. -1.
         21    1    1    2  503  502  0.19227929258E+02 -0.70415598422E+01  0.70705656683E+01  0.21663095980E+02  0.00000000000E+00 0.  1.
         -4    1    1    2    0  503 -0.19227929258E+02  0.70415598422E+01 -0.19202373008E+02  0.28071835667E+02  0.00000000000E+00 0. -1.
<mgrwt>
<rscale>  2 0.20476739E+02</rscale>
<asrwt>0</asrwt>
<pdfrwt beam="1">  1       21 0.28925480E-02 0.20476739E+02</pdfrwt>
<pdfrwt beam="2">  1       -4 0.47589799E-02 0.20476739E+02</pdfrwt>
<totfact> 0.35763466E+06</totfact>
</mgrwt>
</event>
<event>
 4    1  0.2177230E+006  0.2228304E+02  0.7546771E-02  0.1703402E+00
         21   -1    0    0  501  502  0.00000000000E+00  0.00000000000E+00  0.18353156051E+02  0.18353156051E+02  0.00000000000E+00 0.  1.
         -2   -1    0    0    0  501 -0.00000000000E+00 -0.00000000000E+00 -0.37089781254E+03  0.37089781254E+03  0.00000000000E+00 0. -1.
         21    1    1    2  503  502 -0.17722828192E+02  0.13506856633E+02  0.11120479306E+02  0.24903792387E+02  0.00000000000E+00 0.  1.
         -2    1    1    2    0  503  0.17722828192E+02 -0.13506856633E+02 -0.36366513579E+03  0.36434717620E+03  0.00000000000E+00 0. -1.
<mgrwt>
<rscale>  2 0.22283039E+02</rscale>
<asrwt>0</asrwt>
<pdfrwt beam="1">  1       21 0.28235625E-02 0.22283039E+02</pdfrwt>
<pdfrwt beam="2">  1       -2 0.57061202E-01 0.22283039E+02</pdfrwt>
<totfact> 0.13191347E+05</totfact>
</mgrwt>
</event>
<event>
 4    1  0.2177230E+006  0.2111711E+02  0.7546771E-02  0.1723984E+00
          2   -1    0    0  503    0 -0.00000000000E+00  0.00000000000E+00  0.43698877614E+03  0.43698877614E+03  0.00000000000E+00 0. -1.
         21   -1    0    0  501  502  0.00000000000E+00 -0.00000000000E+00 -0.12818830357E+01  0.12818830357E+01  0.00000000000E+00 0. -1.
         21    1    1    2  503  502  0.18793125279E+02  0.96307291040E+01  0.11889461693E+03  0.12075538263E+03  0.00000000000E+00 0. -1.
          2    1    1    2  501    0 -0.18793125279E+02 -0.96307291040E+01  0.31681227618E+03  0.31751527654E+03  0.00000000000E+00 0. -1.
<mgrwt>
<rscale>  2 0.21117114E+02</rscale>
<asrwt>0</asrwt>
<pdfrwt beam="2">  1       21 0.19721312E-03 0.21117114E+02</pdfrwt>
<pdfrwt beam="1">  1        2 0.67228924E-01 0.21117114E+02</pdfrwt>
<totfact> 0.26360303E+07</totfact>
</mgrwt>
</event>
<event>
 4    1  0.2177230E+006  0.2222282E+02  0.7546771E-02  0.1704427E+00
         21   -1    0    0  501  502  0.00000000000E+00  0.00000000000E+00  0.82142436215E+01  0.82142436215E+01  0.00000000000E+00 0.  1.
          2   -1    0    0  503    0 -0.00000000000E+00 -0.00000000000E+00 -0.61480527729E+03  0.61480527729E+03  0.00000000000E+00 0. -1.
         21    1    1    2  503  502  0.16914729909E+02 -0.14413384735E+02 -0.74087479842E+01  0.23425270418E+02  0.00000000000E+00 0.  1.
          2    1    1    2  501    0 -0.16914729909E+02  0.14413384735E+02 -0.59918228568E+03  0.59959425049E+03  0.00000000000E+00 0. -1.
<mgrwt>
<rscale>  2 0.22222820E+02</rscale>
<asrwt>0</asrwt>
<pdfrwt beam="1">  1       21 0.12637296E-02 0.22222820E+02</pdfrwt>
<pdfrwt beam="2">  1        2 0.94585440E-01 0.22222820E+02</pdfrwt>
<totfact> 0.12249525E+06</totfact>
</mgrwt>
</event>
<event>
 4    1  0.2177230E+006  0.2314871E+02  0.7546771E-02  0.1689111E+00
          2   -1    0    0  503    0 -0.00000000000E+00  0.00000000000E+00  0.42439002877E+02  0.42439002877E+02  0.00000000000E+00 0.  1.
         21   -1    0    0  501  502  0.00000000000E+00 -0.00000000000E+00 -0.12595990861E+03  0.12595990861E+03  0.00000000000E+00 0. -1.
         21    1    1    2  503  502 -0.81203880290E+01  0.21677685538E+02 -0.12162826534E+03  0.12381154099E+03  0.00000000000E+00 0. -1.
          2    1    1    2  501    0  0.81203880290E+01 -0.21677685538E+02  0.38107359606E+02  0.44587370501E+02  0.00000000000E+00 0.  1.
<mgrwt>
<rscale>  2 0.23148710E+02</rscale>
<asrwt>0</asrwt>
<pdfrwt beam="2">  1       21 0.19378447E-01 0.23148710E+02</pdfrwt>
<pdfrwt beam="1">  1        2 0.65290774E-02 0.23148710E+02</pdfrwt>
<totfact> 0.26450268E+05</totfact>
</mgrwt>
</event>
<event>
 4    1  0.2177230E+006  0.2461200E+02  0.7546771E-02  0.1666638E+00
          1   -1    0    0  502    0 -0.00000000000E+00  0.00000000000E+00  0.10764175752E+04  0.10764175752E+04  0.00000000000E+00 0.  1.
         21   -1    0    0  503  502  0.00000000000E+00 -0.00000000000E+00 -0.25036501167E+02  0.25036501167E+02  0.00000000000E+00 0. -1.
         21    1    1    2  503  501  0.31981580773E+01  0.24403323929E+02 -0.18811965411E+02  0.30978064441E+02  0.00000000000E+00 0. -1.
          1    1    1    2  501    0 -0.31981580773E+01 -0.24403323929E+02  0.10701930394E+04  0.10704760119E+04  0.00000000000E+00 0.  1.
<mgrwt>
<rscale>  2 0.24611998E+02</rscale>
<asrwt>0</asrwt>
<pdfrwt beam="2">  1       21 0.38517702E-02 0.24611998E+02</pdfrwt>
<pdfrwt beam="1">  1        1 0.16560267E+00 0.24611998E+02</pdfrwt>
<totfact> 0.63333088E+04</totfact>
</mgrwt>
</event>
<event>
 4    1  0.2177230E+006  0.2314796E+02  0.7546771E-02  0.1689123E+00
         21   -1    0    0  501  502  0.00000000000E+00  0.00000000000E+00  0.85256517618E+00  0.85256517618E+00  0.00000000000E+00 0. -1.
          1   -1    0    0  503    0 -0.00000000000E+00 -0.00000000000E+00 -0.76046763772E+03  0.76046763772E+03  0.00000000000E+00 0. -1.
         21    1    1    2  503  502 -0.15097654072E+02  0.17546759244E+02 -0.22122744988E+03  0.22243518719E+03  0.00000000000E+00 0. -1.
          1    1    1    2  501    0  0.15097654072E+02 -0.17546759244E+02 -0.53838762266E+03  0.53888501571E+03  0.00000000000E+00 0. -1.
<mgrwt>
<rscale>  2 0.23147957E+02</rscale>
<asrwt>0</asrwt>
<pdfrwt beam="1">  1       21 0.13116404E-03 0.23147957E+02</pdfrwt>
<pdfrwt beam="2">  1        1 0.11699487E+00 0.23147957E+02</pdfrwt>
<totfact> 0.16348612E+07</totfact>
</mgrwt>
</event>
<event>
 4    1  0.2177230E+006  0.2143309E+02  0.7546771E-02  0.1718245E+00
          2   -1    0    0  502    0 -0.00000000000E+00  0.00000000000E+00  0.34497518018E+03  0.34497518018E+03  0.00000000000E+00 0.  1.
         21   -1    0    0  503  502  0.00000000000E+00 -0.00000000000E+00 -0.23930387022E+01  0.23930387022E+01  0.00000000000E+00 0.  1.
         21    1    1    2  503  501  0.14938643023E+02 -0.15369269690E+02  0.55619239726E+02  0.59606017597E+02  0.00000000000E+00 0.  1.
          2    1    1    2  501    0 -0.14938643023E+02  0.15369269690E+02  0.28696290175E+03  0.28776220129E+03  0.00000000000E+00 0.  1.
<mgrwt>
<rscale>  2 0.21433094E+02</rscale>
<asrwt>0</asrwt>
<pdfrwt beam="2">  1       21 0.36816007E-03 0.21433094E+02</pdfrwt>
<pdfrwt beam="1">  1        2 0.53073065E-01 0.21433094E+02</pdfrwt>
<totfact> 0.13517567E+07</totfact>
</mgrwt>
</event>
<event>
 4    1  0.2177230E+006  0.2557460E+02  0.7546771E-02  0.1652883E+00
         -1   -1    0    0    0  501 -0.00000000000E+00  0.00000000000E+00  0.14515957147E+03  0.14515957147E+03  0.00000000000E+00 0. -1.
         21   -1    0    0  503  502  0.00000000000E+00 -0.00000000000E+00 -0.37633331644E+02  0.37633331644E+02  0.00000000000E+00 0. -1.
         21    1    1    2  503  501 -0.23586128636E+02  0.98871008482E+01 -0.31987551503E+02  0.40954409755E+02  0.00000000000E+00 0. -1.
         -1    1    1    2    0  502  0.23586128636E+02 -0.98871008482E+01  0.13951379133E+03  0.14183849336E+03  0.00000000000E+00 0. -1.
<mgrwt>
<rscale>  2 0.25574601E+02</rscale>
<asrwt>0</asrwt>
<pdfrwt beam="2">  1       21 0.57897434E-02 0.25574601E+02</pdfrwt>
<pdfrwt beam="1">  1       -1 0.22332242E-01 0.25574601E+02</pdfrwt>
<totfact> 0.25709460E+05</totfact>
</mgrwt>
</event>
<event>
 4    1  0.2177230E+006  0.2089166E+02  0.7546771E-02  0.1728156E+00
          1   -1    0    0  502    0 -0.00000000000E+00  0.00000000000E+00  0.12515011305E+04  0.12515011305E+04  0.00000000000E+00 0. -1.
         21   -1    0    0  503  502  0.00000000000E+00 -0.00000000000E+00 -0.10515403820E+01  0.10515403820E+01  0.00000000000E+00 0. -1.
         21    1    1    2  503  501  0.19111147299E+02  0.84395203665E+01  0.11322967568E+03  0.11514087419E+03  0.00000000000E+00 0. -1.
          1    1    1    2  501    0 -0.19111147299E+02 -0.84395203665E+01  0.11372199145E+04  0.11374117967E+04  0.00000000000E+00 0. -1.
<mgrwt>
<rscale>  2 0.20891660E+02</rscale>
<asrwt>0</asrwt>
<pdfrwt beam="2">  1       21 0.16177645E-03 0.20891660E+02</pdfrwt>
<pdfrwt beam="1">  1        1 0.19253744E+00 0.20891660E+02</pdfrwt>
<totfact> 0.54854938E+06</totfact>
</mgrwt>
</event>
<event>
 4    1  0.2177230E+006  0.2017366E+02  0.7546771E-02  0.1741896E+00
         -2   -1    0    0    0  501 -0.00000000000E+00  0.00000000000E+00  0.25174258111E+02  0.25174258111E+02  0.00000000000E+00 0.  1.
         21   -1    0    0  503  502  0.00000000000E+00 -0.00000000000E+00 -0.24965292241E+02  0.24965292241E+02  0.00000000000E+00 0.  1.
         21    1    1    2  503  501  0.18454215073E+02 -0.81497596951E+01 -0.14778726436E+02  0.25007746642E+02  0.00000000000E+00 0.  1.
         -2    1    1    2    0  502 -0.18454215073E+02  0.81497596951E+01  0.14987692306E+02  0.25131803710E+02  0.00000000000E+00 0.  1.
<mgrwt>
<rscale>  2 0.20173662E+02</rscale>
<asrwt>0</asrwt>
<pdfrwt beam="2">  1       21 0.38408142E-02 0.20173662E+02</pdfrwt>
<pdfrwt beam="1">  1       -2 0.38729628E-02 0.20173662E+02</pdfrwt>
<totfact> 0.57290900E+06</totfact>
</mgrwt>
</event>
<event>
 4    1  0.2177230E+006  0.3400791E+02  0.7546771E-02  0.1557591E+00
         21   -1    0    0  501  502  0.00000000000E+00  0.00000000000E+00  0.44636243188E+00  0.44636243188E+00  0.00000000000E+00 0. -1.
          1   -1    0    0  503    0 -0.00000000000E+00 -0.00000000000E+00 -0.30920195703E+04  0.30920195703E+04  0.00000000000E+00 0. -1.
         21    1    1    2  503  502  0.33017537131E+02 -0.81474138077E+01 -0.92338817783E+03  0.92401421259E+03  0.00000000000E+00 0. -1.
          1    1    1    2  501    0 -0.33017537131E+02  0.81474138077E+01 -0.21681850301E+04  0.21684517202E+04  0.00000000000E+00 0. -1.
<mgrwt>
<rscale>  2 0.34007912E+02</rscale>
<asrwt>0</asrwt>
<pdfrwt beam="1">  1       21 0.68669973E-04 0.34007912E+02</pdfrwt>
<pdfrwt beam="2">  1        1 0.47570343E+00 0.34007912E+02</pdfrwt>
<totfact> 0.15094940E+06</totfact>
</mgrwt>
</event>
<event>
 4    1  0.2177230E+006  0.3026352E+02  0.7546771E-02  0.1595194E+00
          1   -1    0    0  502    0 -0.00000000000E+00  0.00000000000E+00  0.74941974561E+03  0.74941974561E+03  0.00000000000E+00 0. -1.
         21   -1    0    0  503  502  0.00000000000E+00 -0.00000000000E+00 -0.23684190269E+01  0.23684190269E+01  0.00000000000E+00 0. -1.
         21    1    1    2  503  501  0.14333420751E+02 -0.26653963841E+02  0.11201752412E+03  0.11603364361E+03  0.00000000000E+00 0. -1.
          1    1    1    2  501    0 -0.14333420751E+02  0.26653963841E+02  0.63503380246E+03  0.63575452102E+03  0.00000000000E+00 0. -1.
<mgrwt>
<rscale>  2 0.30263522E+02</rscale>
<asrwt>0</asrwt>
<pdfrwt beam="2">  1       21 0.36437275E-03 0.30263522E+02</pdfrwt>
<pdfrwt beam="1">  1        1 0.11529516E+00 0.30263522E+02</pdfrwt>
<totfact> 0.40227704E+06</totfact>
</mgrwt>
</event>
<event>
 4    1  0.2177230E+006  0.4614154E+02  0.7546771E-02  0.1467339E+00
         21   -1    0    0  503  502  0.00000000000E+00  0.00000000000E+00  0.11118056048E+03  0.11118056048E+03  0.00000000000E+00 0. -1.
         -3   -1    0    0    0  501 -0.00000000000E+00 -0.00000000000E+00 -0.89467637858E+02  0.89467637858E+02  0.00000000000E+00 0.  1.
         21    1    1    2  503  501  0.41906893987E+02 -0.19309423595E+02  0.99798331392E+02  0.10994884516E+03  0.00000000000E+00 0. -1.
         -3    1    1    2    0  502 -0.41906893987E+02  0.19309423595E+02 -0.78085408773E+02  0.90699353175E+02  0.00000000000E+00 0.  1.
<mgrwt>
<rscale>  2 0.46141539E+02</rscale>
<asrwt>0</asrwt>
<pdfrwt beam="1">  1       21 0.17104702E-01 0.46141539E+02</pdfrwt>
<pdfrwt beam="2">  1       -3 0.13764252E-01 0.46141539E+02</pdfrwt>
<totfact> 0.55245425E+04</totfact>
</mgrwt>
</event>
<event>
 4    1  0.2177230E+006  0.2069161E+02  0.7546771E-02  0.1731914E+00
          4   -1    0    0  503    0 -0.00000000000E+00  0.00000000000E+00  0.26214448137E+03  0.26214448137E+03  0.00000000000E+00 0. -1.
         21   -1    0    0  501  502  0.00000000000E+00 -0.00000000000E+00 -0.66784350501E+01  0.66784350501E+01  0.00000000000E+00 0. -1.
         21    1    1    2  503  502  0.35630956353E+01 -0.20382517732E+02  0.10907354166E+02  0.23390447933E+02  0.00000000000E+00 0. -1.
          4    1    1    2  501    0 -0.35630956353E+01  0.20382517732E+02  0.24455869215E+03  0.24543246848E+03  0.00000000000E+00 0. -1.
<mgrwt>
<rscale>  2 0.20691609E+02</rscale>
<asrwt>0</asrwt>
<pdfrwt beam="2">  1       21 0.10274517E-02 0.20691609E+02</pdfrwt>
<pdfrwt beam="1">  1        4 0.40329912E-01 0.20691609E+02</pdfrwt>
<totfact> 0.49499316E+05</totfact>
</mgrwt>
</event>
<event>
 4    1  0.2177230E+006  0.2036577E+02  0.7546771E-02  0.1738151E+00
          2   -1    0    0  502    0 -0.00000000000E+00  0.00000000000E+00  0.66315953498E+02  0.66315953498E+02  0.00000000000E+00 0. -1.
         21   -1    0    0  503  502  0.00000000000E+00 -0.00000000000E+00 -0.72973251706E+02  0.72973251706E+02  0.00000000000E+00 0.  1.
         21    1    1    2  503  501 -0.32853778772E+01  0.20099022130E+02 -0.69921866778E+02  0.72827411406E+02  0.00000000000E+00 0.  1.
          2    1    1    2  501    0  0.32853778772E+01 -0.20099022130E+02  0.63264568571E+02  0.66461793798E+02  0.00000000000E+00 0. -1.
<mgrwt>
<rscale>  2 0.20365765E+02</rscale>
<asrwt>0</asrwt>
<pdfrwt beam="2">  1       21 0.11226654E-01 0.20365765E+02</pdfrwt>
<pdfrwt beam="1">  1        2 0.10202454E-01 0.20365765E+02</pdfrwt>
<totfact> 0.38776766E+05</totfact>
</mgrwt>
</event>
<event>
 4    1  0.2177230E+006  0.3495448E+02  0.7546771E-02  0.1549005E+00
          2   -1    0    0  502    0 -0.00000000000E+00  0.00000000000E+00  0.87122012320E+03  0.87122012320E+03  0.00000000000E+00 0.  1.
         21   -1    0    0  503  502  0.00000000000E+00 -0.00000000000E+00 -0.20964175462E+01  0.20964175462E+01  0.00000000000E+00 0.  1.
         21    1    1    2  503  501 -0.12325440796E+02  0.32709310398E+02  0.18332569625E+03  0.18662831078E+03  0.00000000000E+00 0.  1.
          2    1    1    2  501    0  0.12325440796E+02 -0.32709310398E+02  0.68579800940E+03  0.68668822997E+03  0.00000000000E+00 0.  1.
<mgrwt>
<rscale>  2 0.34954477E+02</rscale>
<asrwt>0</asrwt>
<pdfrwt beam="2">  1       21 0.32252647E-03 0.34954477E+02</pdfrwt>
<pdfrwt beam="1">  1        2 0.13403358E+00 0.34954477E+02</pdfrwt>
<totfact> 0.69755938E+06</totfact>
</mgrwt>
</event>
<event>
 4    1  0.2177230E+006  0.2805874E+02  0.7546771E-02  0.1620594E+00
         -1   -1    0    0    0  501 -0.00000000000E+00  0.00000000000E+00  0.70293227926E+01  0.70293227926E+01  0.00000000000E+00 0.  1.
         21   -1    0    0  503  502  0.00000000000E+00 -0.00000000000E+00 -0.13570350742E+03  0.13570350742E+03  0.00000000000E+00 0. -1.
         21    1    1    2  503  501 -0.23031035666E+02 -0.16026990277E+02 -0.94162960498E+02  0.98254547736E+02  0.00000000000E+00 0. -1.
         -1    1    1    2    0  502  0.23031035666E+02  0.16026990277E+02 -0.34511224134E+02  0.44478282480E+02  0.00000000000E+00 0.  1.
<mgrwt>
<rscale>  2 0.28058742E+02</rscale>
<asrwt>0</asrwt>
<pdfrwt beam="2">  1       21 0.20877463E-01 0.28058742E+02</pdfrwt>
<pdfrwt beam="1">  1       -1 0.10814343E-02 0.28058742E+02</pdfrwt>
<totfact> 0.22317636E+06</totfact>
</mgrwt>
</event>
<event>
 4    1  0.2177230E+006  0.2225495E+02  0.7546771E-02  0.1703880E+00
         21   -1    0    0  501  502  0.00000000000E+00  0.00000000000E+00  0.42929607966E+02  0.42929607966E+02  0.00000000000E+00 0.  1.
          1   -1    0    0  503    0 -0.00000000000E+00 -0.00000000000E+00 -0.28571616775E+03  0.28571616775E+03  0.00000000000E+00 0. -1.
         21    1    1    2  503  502 -0.15710648966E+02 -0.15762567353E+02  0.39577779104E+02  0.45405766366E+02  0.00000000000E+00 0.  1.
          1    1    1    2  501    0  0.15710648966E+02  0.15762567353E+02 -0.28236433889E+03  0.28324000935E+03  0.00000000000E+00 0. -1.
<mgrwt>
<rscale>  2 0.22254955E+02</rscale>
<asrwt>0</asrwt>
<pdfrwt beam="1">  1       21 0.66045552E-02 0.22254955E+02</pdfrwt>
<pdfrwt beam="2">  1        1 0.43956333E-01 0.22254955E+02</pdfrwt>
<totfact> 0.14529351E+05</totfact>
</mgrwt>
</event>
<event>
 4    1  0.2177230E+006  0.2753449E+02  0.7546771E-02  0.1627058E+00
         21   -1    0    0  501  502  0.00000000000E+00  0.00000000000E+00  0.10261706221E+03  0.10261706221E+03  0.00000000000E+00 0. -1.
          2   -1    0    0  503    0 -0.00000000000E+00 -0.00000000000E+00 -0.25943874823E+03  0.25943874823E+03  0.00000000000E+00 0. -1.
         21    1    1    2  503  502  0.39996538110E+01  0.27242444250E+02  0.10002084786E+03  0.10374159246E+03  0.00000000000E+00 0. -1.
          2    1    1    2  501    0 -0.39996538110E+01 -0.27242444250E+02 -0.25684253388E+03  0.25831421798E+03  0.00000000000E+00 0. -1.
<mgrwt>
<rscale>  2 0.27534487E+02</rscale>
<asrwt>0</asrwt>
<pdfrwt beam="1">  1       21 0.15787241E-01 0.27534487E+02</pdfrwt>
<pdfrwt beam="2">  1        2 0.39913653E-01 0.27534487E+02</pdfrwt>
<totfact> 0.53058774E+04</totfact>
</mgrwt>
</event>
<event>
 4    1  0.2177230E+006  0.6231403E+02  0.7546771E-02  0.1388370E+00
         21   -1    0    0  503  502  0.00000000000E+00  0.00000000000E+00  0.12968477130E+02  0.12968477130E+02  0.00000000000E+00 0. -1.
         -2   -1    0    0    0  501 -0.00000000000E+00 -0.00000000000E+00 -0.58161178161E+03  0.58161178161E+03  0.00000000000E+00 0. -1.
         21    1    1    2  503  501 -0.59151378644E+02  0.19599806102E+02 -0.77243114455E+02  0.99244832236E+02  0.00000000000E+00 0. -1.
         -2    1    1    2    0  502  0.59151378644E+02 -0.19599806102E+02 -0.49140019002E+03  0.49533542650E+03  0.00000000000E+00 0. -1.
<mgrwt>
<rscale>  2 0.62314027E+02</rscale>
<asrwt>0</asrwt>
<pdfrwt beam="1">  1       21 0.19951508E-02 0.62314027E+02</pdfrwt>
<pdfrwt beam="2">  1       -2 0.89478713E-01 0.62314027E+02</pdfrwt>
<totfact> 0.10287826E+05</totfact>
</mgrwt>
</event>
<event>
 4    1  0.2177230E+006  0.3215595E+02  0.7546771E-02  0.1575411E+00
         21   -1    0    0  503  502  0.00000000000E+00  0.00000000000E+00  0.26551662300E+02  0.26551662300E+02  0.00000000000E+00 0. -1.
         -3   -1    0    0    0  501 -0.00000000000E+00 -0.00000000000E+00 -0.53215023300E+02  0.53215023300E+02  0.00000000000E+00 0. -1.
         21    1    1    2  503  501  0.31701380605E+02 -0.53877487199E+01  0.73228303040E+01  0.32979223947E+02  0.00000000000E+00 0. -1.
         -3    1    1    2    0  502 -0.31701380605E+02  0.53877487199E+01 -0.33986191304E+02  0.46787461653E+02  0.00000000000E+00 0. -1.
<mgrwt>
<rscale>  2 0.32155954E+02</rscale>
<asrwt>0</asrwt>
<pdfrwt beam="1">  1       21 0.40848712E-02 0.32155954E+02</pdfrwt>
<pdfrwt beam="2">  1       -3 0.81869266E-02 0.32155954E+02</pdfrwt>
<totfact> 0.12830934E+06</totfact>
</mgrwt>
</event>
<event>
 4    1  0.2177230E+006  0.2741267E+02  0.7546771E-02  0.1628585E+00
         21   -1    0    0  503  502  0.00000000000E+00  0.00000000000E+00  0.12710773478E+02  0.12710773478E+02  0.00000000000E+00 0.  1.
          2   -1    0    0  502    0 -0.00000000000E+00 -0.00000000000E+00 -0.49518605054E+03  0.49518605054E+03  0.00000000000E+00 0. -1.
         21    1    1    2  503  501  0.14235045116E+02 -0.23426862194E+02 -0.29301470614E+01  0.27568825574E+02  0.00000000000E+00 0.  1.
          2    1    1    2  501    0 -0.14235045116E+02  0.23426862194E+02 -0.47954513000E+03  0.48032799845E+03  0.00000000000E+00 0. -1.
<mgrwt>
<rscale>  2 0.27412668E+02</rscale>
<asrwt>0</asrwt>
<pdfrwt beam="1">  1       21 0.19555035E-02 0.27412668E+02</pdfrwt>
<pdfrwt beam="2">  1        2 0.76182472E-01 0.27412668E+02</pdfrwt>
<totfact> 0.81640208E+05</totfact>
</mgrwt>
</event>
<event>
 4    1  0.2177230E+006  0.2069746E+02  0.7546771E-02  0.1731804E+00
         21   -1    0    0  503  502  0.00000000000E+00  0.00000000000E+00  0.66259961162E+02  0.66259961162E+02  0.00000000000E+00 0. -1.
         -1   -1    0    0    0  501 -0.00000000000E+00 -0.00000000000E+00 -0.58758910129E+02  0.58758910129E+02  0.00000000000E+00 0. -1.
         21    1    1    2  503  501 -0.48430956317E+01 -0.20122856204E+02  0.62720830787E+02  0.66047615640E+02  0.00000000000E+00 0. -1.
         -1    1    1    2    0  502  0.48430956317E+01  0.20122856204E+02 -0.55219779753E+02  0.58971255651E+02  0.00000000000E+00 0. -1.
<mgrwt>
<rscale>  2 0.20697462E+02</rscale>
<asrwt>0</asrwt>
<pdfrwt beam="1">  1       21 0.10193840E-01 0.20697462E+02</pdfrwt>
<pdfrwt beam="2">  1       -1 0.90398323E-02 0.20697462E+02</pdfrwt>
<totfact> 0.37489290E+05</totfact>
</mgrwt>
</event>
<event>
 4    1  0.2177230E+006  0.2556210E+02  0.7546771E-02  0.1653057E+00
         21   -1    0    0  503  502  0.00000000000E+00  0.00000000000E+00  0.67158158608E+00  0.67158158608E+00  0.00000000000E+00 0.  1.
          2   -1    0    0  502    0 -0.00000000000E+00 -0.00000000000E+00 -0.17406595514E+04  0.17406595514E+04  0.00000000000E+00 0. -1.
         21    1    1    2  503  501 -0.24621878332E+02 -0.68690748669E+01 -0.29177747395E+03  0.29289505866E+03  0.00000000000E+00 0.  1.
          2    1    1    2  501    0  0.24621878332E+02  0.68690748669E+01 -0.14482104958E+04  0.14484360743E+04  0.00000000000E+00 0. -1.
<mgrwt>
<rscale>  2 0.25562102E+02</rscale>
<asrwt>0</asrwt>
<pdfrwt beam="1">  1       21 0.10332118E-03 0.25562102E+02</pdfrwt>
<pdfrwt beam="2">  1        2 0.26779136E+00 0.25562102E+02</pdfrwt>
<totfact> 0.12393030E+07</totfact>
</mgrwt>
</event>
<event>
 4    1  0.2177230E+006  0.3061899E+02  0.7546771E-02  0.1591346E+00
         21   -1    0    0  501  502  0.00000000000E+00  0.00000000000E+00  0.90535901365E+03  0.90535901365E+03  0.00000000000E+00 0. -1.
          3   -1    0    0  503    0 -0.00000000000E+00 -0.00000000000E+00 -0.87775874186E+01  0.87775874186E+01  0.00000000000E+00 0.  1.
         21    1    1    2  503  502  0.99720563699E+01 -0.28949618259E+02  0.87755211743E+03  0.87808612397E+03  0.00000000000E+00 0. -1.
          3    1    1    2  501    0 -0.99720563699E+01  0.28949618259E+02  0.19029308805E+02  0.36050477101E+02  0.00000000000E+00 0.  1.
<mgrwt>
<rscale>  2 0.30618986E+02</rscale>
<asrwt>0</asrwt>
<pdfrwt beam="1">  1       21 0.13928593E+00 0.30618986E+02</pdfrwt>
<pdfrwt beam="2">  1        3 0.13503988E-02 0.30618986E+02</pdfrwt>
<totfact> 0.26771990E+04</totfact>
</mgrwt>
</event>
<event>
 4    1  0.2177230E+006  0.2512323E+02  0.7546771E-02  0.1659238E+00
          2   -1    0    0  503    0 -0.00000000000E+00  0.00000000000E+00  0.71829495550E+02  0.71829495550E+02  0.00000000000E+00 0. -1.
         21   -1    0    0  501  502  0.00000000000E+00 -0.00000000000E+00 -0.50636218030E+02  0.50636218030E+02  0.00000000000E+00 0.  1.
         21    1    1    2  503  502 -0.15199439210E+02  0.20003840457E+02 -0.45070228846E+02  0.51599439082E+02  0.00000000000E+00 0.  1.
          2    1    1    2  501    0  0.15199439210E+02 -0.20003840457E+02  0.66263506366E+02  0.70866274498E+02  0.00000000000E+00 0. -1.
<mgrwt>
<rscale>  2 0.25123228E+02</rscale>
<asrwt>0</asrwt>
<pdfrwt beam="2">  1       21 0.77901874E-02 0.25123228E+02</pdfrwt>
<pdfrwt beam="1">  1        2 0.11050692E-01 0.25123228E+02</pdfrwt>
<totfact> 0.67113805E+05</totfact>
</mgrwt>
</event>
<event>
 4    1  0.2177230E+006  0.5956682E+02  0.7546771E-02  0.1399659E+00
         -3   -1    0    0    0  501 -0.00000000000E+00  0.00000000000E+00  0.34323631737E+02  0.34323631737E+02  0.00000000000E+00 0. -1.
         21   -1    0    0  501  502  0.00000000000E+00 -0.00000000000E+00 -0.12100493526E+03  0.12100493526E+03  0.00000000000E+00 0. -1.
         21    1    1    2  503  502 -0.16398938522E+02 -0.57265007628E+02 -0.72985200996E+02  0.94207461741E+02  0.00000000000E+00 0. -1.
         -3    1    1    2    0  503  0.16398938522E+02  0.57265007628E+02 -0.13696102528E+02  0.61121105257E+02  0.00000000000E+00 0. -1.
<mgrwt>
<rscale>  2 0.59566822E+02</rscale>
<asrwt>0</asrwt>
<pdfrwt beam="2">  1       21 0.18616144E-01 0.59566822E+02</pdfrwt>
<pdfrwt beam="1">  1       -3 0.52805587E-02 0.59566822E+02</pdfrwt>
<totfact> 0.22944901E+05</totfact>
</mgrwt>
</event>
<event>
 4    1  0.2177230E+006  0.4008175E+02  0.7546771E-02  0.1507611E+00
         -3   -1    0    0    0  501 -0.00000000000E+00  0.00000000000E+00  0.18135455195E+03  0.18135455195E+03  0.00000000000E+00 0.  1.
         21   -1    0    0  501  502  0.00000000000E+00 -0.00000000000E+00 -0.10126195793E+02  0.10126195793E+02  0.00000000000E+00 0.  1.
         21    1    1    2  503  502  0.25164415121E+02 -0.31197733710E+02  0.51740422316E+02  0.65449352010E+02  0.00000000000E+00 0.  1.
         -3    1    1    2    0  503 -0.25164415121E+02  0.31197733710E+02  0.11948793384E+03  0.12603139573E+03  0.00000000000E+00 0.  1.
<mgrwt>
<rscale>  2 0.40081746E+02</rscale>
<asrwt>0</asrwt>
<pdfrwt beam="2">  1       21 0.15578764E-02 0.40081746E+02</pdfrwt>
<pdfrwt beam="1">  1       -3 0.27900698E-01 0.40081746E+02</pdfrwt>
<totfact> 0.81492559E+05</totfact>
</mgrwt>
</event>
<event>
 4    1  0.2177230E+006  0.3312066E+02  0.7546771E-02  0.1565952E+00
         21   -1    0    0  501  502  0.00000000000E+00  0.00000000000E+00  0.20448898434E+04  0.20448898434E+04  0.00000000000E+00 0.  1.
         -1   -1    0    0    0  501 -0.00000000000E+00 -0.00000000000E+00 -0.32943900385E+01  0.32943900385E+01  0.00000000000E+00 0.  1.
         21    1    1    2  503  502 -0.30679951918E+02  0.12478735337E+02  0.19578073159E+04  0.19580874507E+04  0.00000000000E+00 0.  1.
         -1    1    1    2    0  503  0.30679951918E+02 -0.12478735337E+02  0.83788137429E+02  0.90096782734E+02  0.00000000000E+00 0.  1.
<mgrwt>
<rscale>  2 0.33120663E+02</rscale>
<asrwt>0</asrwt>
<pdfrwt beam="1">  1       21 0.31459742E+00 0.33120663E+02</pdfrwt>
<pdfrwt beam="2">  1       -1 0.50683087E-03 0.33120663E+02</pdfrwt>
<totfact> 0.14293041E+04</totfact>
</mgrwt>
</event>
<event>
 4    1  0.2177230E+006  0.2008698E+02  0.7546771E-02  0.1743604E+00
         21   -1    0    0  503  502  0.00000000000E+00  0.00000000000E+00  0.74105259384E+00  0.74105259384E+00  0.00000000000E+00 0.  1.
         -3   -1    0    0    0  501 -0.00000000000E+00 -0.00000000000E+00 -0.74969740693E+03  0.74969740693E+03  0.00000000000E+00 0. -1.
         21    1    1    2  503  501  0.11873380699E+02 -0.16202152782E+02 -0.17816422371E+03  0.17929299355E+03  0.00000000000E+00 0.  1.
         -3    1    1    2    0  502 -0.11873380699E+02  0.16202152782E+02 -0.57079213062E+03  0.57114546597E+03  0.00000000000E+00 0. -1.
<mgrwt>
<rscale>  2 0.20086984E+02</rscale>
<asrwt>0</asrwt>
<pdfrwt beam="1">  1       21 0.11400790E-03 0.20086984E+02</pdfrwt>
<pdfrwt beam="2">  1       -3 0.11533826E+00 0.20086984E+02</pdfrwt>
<totfact> 0.18915683E+06</totfact>
</mgrwt>
</event>
<event>
 4    1  0.2177230E+006  0.2052657E+02  0.7546771E-02  0.1735055E+00
         21   -1    0    0  501  502  0.00000000000E+00  0.00000000000E+00  0.11672116444E+01  0.11672116444E+01  0.00000000000E+00 0. -1.
          1   -1    0    0  503    0 -0.00000000000E+00 -0.00000000000E+00 -0.81374661335E+03  0.81374661335E+03  0.00000000000E+00 0.  1.
         21    1    1    2  503  502  0.11394691846E+02  0.17073407622E+02 -0.10235925163E+03  0.10439711033E+03  0.00000000000E+00 0. -1.
          1    1    1    2  501    0 -0.11394691846E+02 -0.17073407622E+02 -0.71022015008E+03  0.71051671467E+03  0.00000000000E+00 0.  1.
<mgrwt>
<rscale>  2 0.20526574E+02</rscale>
<asrwt>0</asrwt>
<pdfrwt beam="1">  1       21 0.17957122E-03 0.20526574E+02</pdfrwt>
<pdfrwt beam="2">  1        1 0.12519165E+00 0.20526574E+02</pdfrwt>
<totfact> 0.91956517E+06</totfact>
</mgrwt>
</event>
<event>
 4    1  0.2177230E+006  0.3179941E+02  0.7546771E-02  0.1579010E+00
          2   -1    0    0  503    0 -0.00000000000E+00  0.00000000000E+00  0.86960070715E+03  0.86960070715E+03  0.00000000000E+00 0.  1.
         21   -1    0    0  501  502  0.00000000000E+00 -0.00000000000E+00 -0.13321990692E+02  0.13321990692E+02  0.00000000000E+00 0. -1.
         21    1    1    2  503  502  0.26124114119E+02  0.18130991338E+02  0.63847546144E+01  0.32434045028E+02  0.00000000000E+00 0. -1.
          2    1    1    2  501    0 -0.26124114119E+02 -0.18130991338E+02  0.84989396184E+03  0.85048865281E+03  0.00000000000E+00 0.  1.
<mgrwt>
<rscale>  2 0.31799405E+02</rscale>
<asrwt>0</asrwt>
<pdfrwt beam="2">  1       21 0.20495377E-02 0.31799405E+02</pdfrwt>
<pdfrwt beam="1">  1        2 0.13378468E+00 0.31799405E+02</pdfrwt>
<totfact> 0.41962274E+05</totfact>
</mgrwt>
</event>
<event>
 4    1  0.2177230E+006  0.2127184E+02  0.7546771E-02  0.1721158E+00
          2   -1    0    0  503    0 -0.00000000000E+00  0.00000000000E+00  0.88691249486E+03  0.88691249486E+03  0.00000000000E+00 0.  1.
         21   -1    0    0  501  502  0.00000000000E+00 -0.00000000000E+00 -0.57775892321E+00  0.57775892321E+00  0.00000000000E+00 0.  1.
         21    1    1    2  503  502 -0.25029306189E+01 -0.21124072927E+02  0.29141209471E+03  0.29218743995E+03  0.00000000000E+00 0.  1.
          2    1    1    2  501    0  0.25029306189E+01  0.21124072927E+02  0.59492264123E+03  0.59530281384E+03  0.00000000000E+00 0.  1.
<mgrwt>
<rscale>  2 0.21271839E+02</rscale>
<asrwt>0</asrwt>
<pdfrwt beam="2">  1       21 0.88886698E-04 0.21271839E+02</pdfrwt>
<pdfrwt beam="1">  1        2 0.13644699E+00 0.21271839E+02</pdfrwt>
<totfact> 0.38974791E+07</totfact>
</mgrwt>
</event>
<event>
 4    1  0.2177230E+006  0.2631135E+02  0.7546771E-02  0.1642851E+00
          2   -1    0    0  503    0 -0.00000000000E+00  0.00000000000E+00  0.48317949460E+03  0.48317949460E+03  0.00000000000E+00 0.  1.
         21   -1    0    0  501  502  0.00000000000E+00 -0.00000000000E+00 -0.23738065978E+01  0.23738065978E+01  0.00000000000E+00 0. -1.
         21    1    1    2  503  502 -0.10540195881E+02 -0.24107915408E+02  0.87545453553E+02  0.91413859739E+02  0.00000000000E+00 0. -1.
          2    1    1    2  501    0  0.10540195881E+02  0.24107915408E+02  0.39326023445E+03  0.39413944146E+03  0.00000000000E+00 0.  1.
<mgrwt>
<rscale>  2 0.26311353E+02</rscale>
<asrwt>0</asrwt>
<pdfrwt beam="2">  1       21 0.36520140E-03 0.26311353E+02</pdfrwt>
<pdfrwt beam="1">  1        2 0.74335229E-01 0.26311353E+02</pdfrwt>
<totfact> 0.10353759E+07</totfact>
</mgrwt>
</event>
<event>
 4    1  0.2177230E+006  0.3687188E+02  0.7546771E-02  0.1532580E+00
         21   -1    0    0  501  502  0.00000000000E+00  0.00000000000E+00  0.12313756340E+02  0.12313756340E+02  0.00000000000E+00 0. -1.
          2   -1    0    0  503    0 -0.00000000000E+00 -0.00000000000E+00 -0.28859776984E+03  0.28859776984E+03  0.00000000000E+00 0.  1.
         21    1    1    2  503  502 -0.36860852892E+02 -0.90150059064E+00 -0.19918475639E+02  0.41908004618E+02  0.00000000000E+00 0. -1.
          2    1    1    2  501    0  0.36860852892E+02  0.90150059064E+00 -0.25636553786E+03  0.25900352156E+03  0.00000000000E+00 0.  1.
<mgrwt>
<rscale>  2 0.36871875E+02</rscale>
<asrwt>0</asrwt>
<pdfrwt beam="1">  1       21 0.18944240E-02 0.36871875E+02</pdfrwt>
<pdfrwt beam="2">  1        2 0.44399657E-01 0.36871875E+02</pdfrwt>
<totfact> 0.15517363E+06</totfact>
</mgrwt>
</event>
<event>
 4    1  0.2177230E+006  0.6420529E+02  0.7546771E-02  0.1380986E+00
          1   -1    0    0  503    0 -0.00000000000E+00  0.00000000000E+00  0.81791142810E+03  0.81791142810E+03  0.00000000000E+00 0.  1.
         21   -1    0    0  501  502  0.00000000000E+00 -0.00000000000E+00 -0.93981359902E+01  0.93981359902E+01  0.00000000000E+00 0. -1.
         21    1    1    2  503  502 -0.59189029148E+02 -0.24879281198E+02  0.12257097158E+03  0.13836893755E+03  0.00000000000E+00 0. -1.
          1    1    1    2  501    0  0.59189029148E+02  0.24879281198E+02  0.68594232053E+03  0.68894062654E+03  0.00000000000E+00 0.  1.
<mgrwt>
<rscale>  2 0.64205294E+02</rscale>
<asrwt>0</asrwt>
<pdfrwt beam="2">  1       21 0.14458677E-02 0.64205294E+02</pdfrwt>
<pdfrwt beam="1">  1        1 0.12583247E+00 0.64205294E+02</pdfrwt>
<totfact> 0.48444353E+05</totfact>
</mgrwt>
</event>
<event>
 4    1  0.2177230E+006  0.4440852E+02  0.7546771E-02  0.1478068E+00
         21   -1    0    0  503  502  0.00000000000E+00  0.00000000000E+00  0.12681470101E+02  0.12681470101E+02  0.00000000000E+00 0. -1.
          1   -1    0    0  502    0 -0.00000000000E+00 -0.00000000000E+00 -0.39370916293E+03  0.39370916293E+03  0.00000000000E+00 0. -1.
         21    1    1    2  503  501  0.43623319468E+02 -0.83139984648E+01 -0.32463836643E+02  0.55009247054E+02  0.00000000000E+00 0. -1.
          1    1    1    2  501    0 -0.43623319468E+02  0.83139984648E+01 -0.34856385619E+03  0.35138138598E+03  0.00000000000E+00 0. -1.
<mgrwt>
<rscale>  2 0.44408519E+02</rscale>
<asrwt>0</asrwt>
<pdfrwt beam="1">  1       21 0.19509954E-02 0.44408519E+02</pdfrwt>
<pdfrwt beam="2">  1        1 0.60570640E-01 0.44408519E+02</pdfrwt>
<totfact> 0.75679481E+05</totfact>
</mgrwt>
</event>
<event>
 4    1  0.2177230E+006  0.2999772E+02  0.7546771E-02  0.1598114E+00
          2   -1    0    0  503    0 -0.00000000000E+00  0.00000000000E+00  0.11658971717E+02  0.11658971717E+02  0.00000000000E+00 0.  1.
         21   -1    0    0  501  502  0.00000000000E+00 -0.00000000000E+00 -0.15403069866E+03  0.15403069866E+03  0.00000000000E+00 0. -1.
         21    1    1    2  503  502 -0.10207364700E+02 -0.28207669859E+02 -0.12970258838E+03  0.13312634737E+03  0.00000000000E+00 0. -1.
          2    1    1    2  501    0  0.10207364700E+02  0.28207669859E+02 -0.12669138564E+02  0.32563323003E+02  0.00000000000E+00 0.  1.
<mgrwt>
<rscale>  2 0.29997715E+02</rscale>
<asrwt>0</asrwt>
<pdfrwt beam="2">  1       21 0.23697029E-01 0.29997715E+02</pdfrwt>
<pdfrwt beam="1">  1        2 0.17936881E-02 0.29997715E+02</pdfrwt>
<totfact> 0.98290950E+05</totfact>
</mgrwt>
</event>
<event>
 4    1  0.2177230E+006  0.2645257E+02  0.7546771E-02  0.1640974E+00
         21   -1    0    0  501  502  0.00000000000E+00  0.00000000000E+00  0.29425359383E+01  0.29425359383E+01  0.00000000000E+00 0. -1.
         -2   -1    0    0    0  501 -0.00000000000E+00 -0.00000000000E+00 -0.57822920824E+03  0.57822920824E+03  0.00000000000E+00 0. -1.
         21    1    1    2  503  502  0.17975613960E+01 -0.26391426753E+02 -0.64678121649E+02  0.69878451994E+02  0.00000000000E+00 0. -1.
         -2    1    1    2    0  503 -0.17975613960E+01  0.26391426753E+02 -0.51060855065E+03  0.51129329218E+03  0.00000000000E+00 0. -1.
<mgrwt>
<rscale>  2 0.26452573E+02</rscale>
<asrwt>0</asrwt>
<pdfrwt beam="1">  1       21 0.45269766E-03 0.26452573E+02</pdfrwt>
<pdfrwt beam="2">  1       -2 0.88958374E-01 0.26452573E+02</pdfrwt>
<totfact> 0.87256936E+05</totfact>
</mgrwt>
</event>
<event>
 4    1  0.2177230E+006  0.2493026E+02  0.7546771E-02  0.1662006E+00
         21   -1    0    0  503  502  0.00000000000E+00  0.00000000000E+00  0.66838777579E+01  0.66838777579E+01  0.00000000000E+00 0. -1.
         -2   -1    0    0    0  501 -0.00000000000E+00 -0.00000000000E+00 -0.11847541854E+03  0.11847541854E+03  0.00000000000E+00 0. -1.
         21    1    1    2  503  501 -0.14310605677E+02  0.20413828085E+02 -0.26869900292E+02  0.36653913210E+02  0.00000000000E+00 0. -1.
         -2    1    1    2    0  502  0.14310605677E+02 -0.20413828085E+02 -0.84921640494E+02  0.88505383092E+02  0.00000000000E+00 0. -1.
<mgrwt>
<rscale>  2 0.24930259E+02</rscale>
<asrwt>0</asrwt>
<pdfrwt beam="1">  1       21 0.10282888E-02 0.24930259E+02</pdfrwt>
<pdfrwt beam="2">  1       -2 0.18226988E-01 0.24930259E+02</pdfrwt>
<totfact> 0.46840814E+06</totfact>
</mgrwt>
</event>
<event>
 4    1  0.2177230E+006  0.2007825E+02  0.7546771E-02  0.1743777E+00
          2   -1    0    0  502    0 -0.00000000000E+00  0.00000000000E+00  0.23952589415E+03  0.23952589415E+03  0.00000000000E+00 0.  1.
         21   -1    0    0  503  502  0.00000000000E+00 -0.00000000000E+00 -0.13290341824E+02  0.13290341824E+02  0.00000000000E+00 0.  1.
         21    1    1    2  503  501  0.10991784069E+02 -0.16802280236E+02 -0.50154853904E+01  0.20695193448E+02  0.00000000000E+00 0.  1.
          2    1    1    2  501    0 -0.10991784069E+02  0.16802280236E+02  0.23125103771E+03  0.23212104252E+03  0.00000000000E+00 0.  1.
<mgrwt>
<rscale>  2 0.20078245E+02</rscale>
<asrwt>0</asrwt>
<pdfrwt beam="2">  1       21 0.20446681E-02 0.20078245E+02</pdfrwt>
<pdfrwt beam="1">  1        2 0.36850134E-01 0.20078245E+02</pdfrwt>
<totfact> 0.14736630E+06</totfact>
</mgrwt>
</event>
<event>
 4    1  0.2177230E+006  0.2154527E+02  0.7546771E-02  0.1716237E+00
         -1   -1    0    0    0  501 -0.00000000000E+00  0.00000000000E+00  0.15622093204E+04  0.15622093204E+04  0.00000000000E+00 0. -1.
         21   -1    0    0  501  502  0.00000000000E+00 -0.00000000000E+00 -0.45760364575E+00  0.45760364575E+00  0.00000000000E+00 0.  1.
         21    1    1    2  503  502 -0.11639167395E+02 -0.18130869079E+02  0.31820008223E+03  0.31892866125E+03  0.00000000000E+00 0.  1.
         -1    1    1    2    0  503  0.11639167395E+02  0.18130869079E+02  0.12435516346E+04  0.12437382628E+04  0.00000000000E+00 0. -1.
<mgrwt>
<rscale>  2 0.21545269E+02</rscale>
<asrwt>0</asrwt>
<pdfrwt beam="2">  1       21 0.70401812E-04 0.21545269E+02</pdfrwt>
<pdfrwt beam="1">  1       -1 0.24033563E+00 0.21545269E+02</pdfrwt>
<totfact> 0.13881013E+06</totfact>
</mgrwt>
</event>
<event>
 4    1  0.2177230E+006  0.2242431E+02  0.7546771E-02  0.1701015E+00
         -4   -1    0    0    0  501 -0.00000000000E+00  0.00000000000E+00  0.15526336522E+01  0.15526336522E+01  0.00000000000E+00 0.  1.
         21   -1    0    0  503  502  0.00000000000E+00 -0.00000000000E+00 -0.52121876129E+03  0.52121876129E+03  0.00000000000E+00 0. -1.
         21    1    1    2  503  501 -0.10275600614E+02  0.19931426985E+02 -0.42067163834E+03  0.42126888926E+03  0.00000000000E+00 0. -1.
         -4    1    1    2    0  502  0.10275600614E+02 -0.19931426985E+02 -0.98994489293E+02  0.10150250568E+03  0.00000000000E+00 0.  1.
<mgrwt>
<rscale>  2 0.22424312E+02</rscale>
<asrwt>0</asrwt>
<pdfrwt beam="2">  1       21 0.80187625E-01 0.22424312E+02</pdfrwt>
<pdfrwt beam="1">  1       -4 0.23886635E-03 0.22424312E+02</pdfrwt>
<totfact> 0.87031080E+05</totfact>
</mgrwt>
</event>
<event>
 4    1  0.2177230E+006  0.2167190E+02  0.7546771E-02  0.1713989E+00
          2   -1    0    0  503    0 -0.00000000000E+00  0.00000000000E+00  0.10876939130E+04  0.10876939130E+04  0.00000000000E+00 0. -1.
         21   -1    0    0  501  502  0.00000000000E+00 -0.00000000000E+00 -0.91586009140E+01  0.91586009140E+01  0.00000000000E+00 0. -1.
         21    1    1    2  503  502  0.86566659724E+01 -0.19867894297E+02  0.39259299740E+01  0.22024622941E+02  0.00000000000E+00 0. -1.
          2    1    1    2  501    0 -0.86566659724E+01  0.19867894297E+02  0.10746093821E+04  0.10748278910E+04  0.00000000000E+00 0. -1.
<mgrwt>
<rscale>  2 0.21671896E+02</rscale>
<asrwt>0</asrwt>
<pdfrwt beam="2">  1       21 0.14090164E-02 0.21671896E+02</pdfrwt>
<pdfrwt beam="1">  1        2 0.16733742E+00 0.21671896E+02</pdfrwt>
<totfact> 0.53686121E+05</totfact>
</mgrwt>
</event>
<event>
 4    1  0.2177230E+006  0.2453299E+02  0.7546771E-02  0.1667802E+00
         -3   -1    0    0    0  501 -0.00000000000E+00  0.00000000000E+00  0.93059493711E+01  0.93059493711E+01  0.00000000000E+00 0. -1.
         21   -1    0    0  503  502  0.00000000000E+00 -0.00000000000E+00 -0.78971760141E+02  0.78971760141E+02  0.00000000000E+00 0. -1.
         21    1    1    2  503  501 -0.83213238523E+01 -0.23078625060E+02 -0.53612908497E+02  0.58959404024E+02  0.00000000000E+00 0. -1.
         -3    1    1    2    0  502  0.83213238523E+01  0.23078625060E+02 -0.16052902273E+02  0.29318305489E+02  0.00000000000E+00 0. -1.
<mgrwt>
<rscale>  2 0.24532985E+02</rscale>
<asrwt>0</asrwt>
<pdfrwt beam="2">  1       21 0.12149501E-01 0.24532985E+02</pdfrwt>
<pdfrwt beam="1">  1       -3 0.14316846E-02 0.24532985E+02</pdfrwt>
<totfact> 0.26724358E+06</totfact>
</mgrwt>
</event>
<event>
 4    1  0.2177230E+006  0.2753964E+02  0.7546771E-02  0.1626994E+00
         21   -1    0    0  501  502  0.00000000000E+00  0.00000000000E+00  0.14358834382E+01  0.14358834382E+01  0.00000000000E+00 0. -1.
          2   -1    0    0  503    0 -0.00000000000E+00 -0.00000000000E+00 -0.60688317623E+03  0.60688317623E+03  0.00000000000E+00 0.  1.
         21    1    1    2  503  502 -0.27304986453E+02  0.35873744198E+01 -0.19320354416E+03  0.19515645266E+03  0.00000000000E+00 0. -1.
          2    1    1    2  501    0  0.27304986453E+02 -0.35873744198E+01 -0.41224374863E+03  0.41316260700E+03  0.00000000000E+00 0.  1.
<mgrwt>
<rscale>  2 0.27539636E+02</rscale>
<asrwt>0</asrwt>
<pdfrwt beam="1">  1       21 0.22090500E-03 0.27539636E+02</pdfrwt>
<pdfrwt beam="2">  1        2 0.93366705E-01 0.27539636E+02</pdfrwt>
<totfact> 0.17269372E+07</totfact>
</mgrwt>
</event>
<event>
 4    1  0.2177230E+006  0.3079171E+02  0.7546771E-02  0.1589499E+00
         -4   -1    0    0    0  501 -0.00000000000E+00  0.00000000000E+00  0.35875069730E+02  0.35875069730E+02  0.00000000000E+00 0.  1.
         21   -1    0    0  503  502  0.00000000000E+00 -0.00000000000E+00 -0.28082386049E+03  0.28082386049E+03  0.00000000000E+00 0.  1.
         21    1    1    2  503  501  0.13911565123E+02 -0.27469945350E+02 -0.27318855844E+03  0.27491838426E+03  0.00000000000E+00 0.  1.
         -4    1    1    2    0  502 -0.13911565123E+02  0.27469945350E+02  0.28239767683E+02  0.41780545957E+02  0.00000000000E+00 0.  1.
<mgrwt>
<rscale>  2 0.30791712E+02</rscale>
<asrwt>0</asrwt>
<pdfrwt beam="2">  1       21 0.43203671E-01 0.30791712E+02</pdfrwt>
<pdfrwt beam="1">  1       -4 0.55192415E-02 0.30791712E+02</pdfrwt>
<totfact> 0.33841015E+04</totfact>
</mgrwt>
</event>
<event>
 4    1  0.2177230E+006  0.3352991E+02  0.7546771E-02  0.1562057E+00
          1   -1    0    0  502    0 -0.00000000000E+00  0.00000000000E+00  0.31122096568E+02  0.31122096568E+02  0.00000000000E+00 0. -1.
         21   -1    0    0  503  502  0.00000000000E+00 -0.00000000000E+00 -0.11193531107E+03  0.11193531107E+03  0.00000000000E+00 0. -1.
         21    1    1    2  503  501 -0.12731816161E+02  0.31018632903E+02 -0.99272507912E+02  0.10478208605E+03  0.00000000000E+00 0. -1.
          1    1    1    2  501    0  0.12731816161E+02 -0.31018632903E+02  0.18459293406E+02  0.38275321592E+02  0.00000000000E+00 0. -1.
<mgrwt>
<rscale>  2 0.33529908E+02</rscale>
<asrwt>0</asrwt>
<pdfrwt beam="2">  1       21 0.17220817E-01 0.33529908E+02</pdfrwt>
<pdfrwt beam="1">  1        1 0.47880149E-02 0.33529908E+02</pdfrwt>
<totfact> 0.46749330E+05</totfact>
</mgrwt>
</event>
<event>
 4    1  0.2177230E+006  0.2339114E+02  0.7546771E-02  0.1685247E+00
         -1   -1    0    0    0  501 -0.00000000000E+00  0.00000000000E+00  0.27454522271E+02  0.27454522271E+02  0.00000000000E+00 0. -1.
         21   -1    0    0  501  502  0.00000000000E+00 -0.00000000000E+00 -0.16324958375E+03  0.16324958375E+03  0.00000000000E+00 0. -1.
         21    1    1    2  503  502 -0.14586431107E+02  0.18286100432E+02 -0.15724002144E+03  0.15897034247E+03  0.00000000000E+00 0. -1.
         -1    1    1    2    0  503  0.14586431107E+02 -0.18286100432E+02  0.21444959962E+02  0.31733763553E+02  0.00000000000E+00 0. -1.
<mgrwt>
<rscale>  2 0.23391140E+02</rscale>
<asrwt>0</asrwt>
<pdfrwt beam="2">  1       21 0.25115321E-01 0.23391140E+02</pdfrwt>
<pdfrwt beam="1">  1       -1 0.42237725E-02 0.23391140E+02</pdfrwt>
<totfact> 0.23919386E+05</totfact>
</mgrwt>
</event>
<event>
 4    1  0.2177230E+006  0.2252939E+02  0.7546771E-02  0.1699254E+00
         21   -1    0    0  501  502  0.00000000000E+00  0.00000000000E+00  0.86286693455E+03  0.86286693455E+03  0.00000000000E+00 0. -1.
          3   -1    0    0  503    0 -0.00000000000E+00 -0.00000000000E+00 -0.82675846097E+00  0.82675846097E+00  0.00000000000E+00 0.  1.
         21    1    1    2  503  502 -0.16881015907E+02  0.14919940531E+02  0.66297358451E+03  0.66335627463E+03  0.00000000000E+00 0. -1.
          3    1    1    2  501    0  0.16881015907E+02 -0.14919940531E+02  0.19906659158E+03  0.20033741839E+03  0.00000000000E+00 0.  1.
<mgrwt>
<rscale>  2 0.22529388E+02</rscale>
<asrwt>0</asrwt>
<pdfrwt beam="1">  1       21 0.13274804E+00 0.22529388E+02</pdfrwt>
<pdfrwt beam="2">  1        3 0.12719430E-03 0.22529388E+02</pdfrwt>
<totfact> 0.79192727E+05</totfact>
</mgrwt>
</event>
<event>
 4    1  0.2177230E+006  0.2101044E+02  0.7546771E-02  0.1725950E+00
         21   -1    0    0  501  502  0.00000000000E+00  0.00000000000E+00  0.12589616320E+01  0.12589616320E+01  0.00000000000E+00 0.  1.
          2   -1    0    0  503    0 -0.00000000000E+00 -0.00000000000E+00 -0.96442980878E+03  0.96442980878E+03  0.00000000000E+00 0. -1.
         21    1    1    2  503  502  0.17382523576E+02 -0.11801967227E+02 -0.96388541205E+02  0.98651859749E+02  0.00000000000E+00 0.  1.
          2    1    1    2  501    0 -0.17382523576E+02  0.11801967227E+02 -0.86678230594E+03  0.86703691066E+03  0.00000000000E+00 0. -1.
<mgrwt>
<rscale>  2 0.21010439E+02</rscale>
<asrwt>0</asrwt>
<pdfrwt beam="1">  1       21 0.19368590E-03 0.21010439E+02</pdfrwt>
<pdfrwt beam="2">  1        2 0.14837420E+00 0.21010439E+02</pdfrwt>
<totfact> 0.11559461E+07</totfact>
</mgrwt>
</event>
<event>
 4    1  0.2177230E+006  0.3569765E+02  0.7546771E-02  0.1542491E+00
         21   -1    0    0  501  502  0.00000000000E+00  0.00000000000E+00  0.21237801126E+01  0.21237801126E+01  0.00000000000E+00 0.  1.
          1   -1    0    0  503    0 -0.00000000000E+00 -0.00000000000E+00 -0.18323732270E+04  0.18323732270E+04  0.00000000000E+00 0. -1.
         21    1    1    2  503  502 -0.25972667112E+02  0.24489650116E+02 -0.16290162922E+03  0.16676709268E+03  0.00000000000E+00 0.  1.
          1    1    1    2  501    0  0.25972667112E+02 -0.24489650116E+02 -0.16673478176E+04  0.16677299144E+04  0.00000000000E+00 0. -1.
<mgrwt>
<rscale>  2 0.35697653E+02</rscale>
<asrwt>0</asrwt>
<pdfrwt beam="1">  1       21 0.32673487E-03 0.35697653E+02</pdfrwt>
<pdfrwt beam="2">  1        1 0.28190403E+00 0.35697653E+02</pdfrwt>
<totfact> 0.95910963E+05</totfact>
</mgrwt>
</event>
<event>
 4    1  0.2177230E+006  0.2002055E+02  0.7546771E-02  0.1744920E+00
         21   -1    0    0  501  502  0.00000000000E+00  0.00000000000E+00  0.27431083090E+03  0.27431083090E+03  0.00000000000E+00 0.  1.
          1   -1    0    0  503    0 -0.00000000000E+00 -0.00000000000E+00 -0.43135773226E+01  0.43135773226E+01  0.00000000000E+00 0. -1.
         21    1    1    2  503  502 -0.87117508598E+01  0.18025753687E+02  0.24828404706E+03  0.24908992438E+03  0.00000000000E+00 0.  1.
          1    1    1    2  501    0  0.87117508598E+01 -0.18025753687E+02  0.21713206514E+02  0.29534483848E+02  0.00000000000E+00 0. -1.
<mgrwt>
<rscale>  2 0.20020549E+02</rscale>
<asrwt>0</asrwt>
<pdfrwt beam="1">  1       21 0.42201653E-01 0.20020549E+02</pdfrwt>
<pdfrwt beam="2">  1        1 0.66362749E-03 0.20020549E+02</pdfrwt>
<totfact> 0.11252273E+06</totfact>
</mgrwt>
</event>
<event>
 4    1  0.2177230E+006  0.2282587E+02  0.7546771E-02  0.1694348E+00
         21   -1    0    0  501  502  0.00000000000E+00  0.00000000000E+00  0.56480436584E+02  0.56480436584E+02  0.00000000000E+00 0.  1.
          1   -1    0    0  503    0 -0.00000000000E+00 -0.00000000000E+00 -0.34152016781E+03  0.34152016781E+03  0.00000000000E+00 0. -1.
         21    1    1    2  503  502  0.16641832051E+02 -0.15622725836E+02  0.53774443478E+02  0.58418412405E+02  0.00000000000E+00 0.  1.
          1    1    1    2  501    0 -0.16641832051E+02  0.15622725836E+02 -0.33881417470E+03  0.33958219199E+03  0.00000000000E+00 0. -1.
<mgrwt>
<rscale>  2 0.22825866E+02</rscale>
<asrwt>0</asrwt>
<pdfrwt beam="1">  1       21 0.86892978E-02 0.22825866E+02</pdfrwt>
<pdfrwt beam="2">  1        1 0.52541565E-01 0.22825866E+02</pdfrwt>
<totfact> 0.75949724E+04</totfact>
</mgrwt>
</event>
<event>
 4    1  0.2177230E+006  0.2434409E+02  0.7546771E-02  0.1670606E+00
         21   -1    0    0  503  502  0.00000000000E+00  0.00000000000E+00  0.31658326171E+02  0.31658326171E+02  0.00000000000E+00 0.  1.
          1   -1    0    0  502    0 -0.00000000000E+00 -0.00000000000E+00 -0.54192829549E+03  0.54192829549E+03  0.00000000000E+00 0.  1.
         21    1    1    2  503  501 -0.11842133453E+02 -0.21269659154E+02  0.26661477890E+02  0.36103586090E+02  0.00000000000E+00 0.  1.
          1    1    1    2  501    0  0.11842133453E+02  0.21269659154E+02 -0.53693144720E+03  0.53748303557E+03  0.00000000000E+00 0.  1.
<mgrwt>
<rscale>  2 0.24344086E+02</rscale>
<asrwt>0</asrwt>
<pdfrwt beam="1">  1       21 0.48705113E-02 0.24344086E+02</pdfrwt>
<pdfrwt beam="2">  1        1 0.83373591E-01 0.24344086E+02</pdfrwt>
<totfact> 0.11273503E+05</totfact>
</mgrwt>
</event>
<event>
 4    1  0.2177230E+006  0.2460116E+02  0.7546771E-02  0.1666798E+00
         21   -1    0    0  501  502  0.00000000000E+00  0.00000000000E+00  0.26117523722E+03  0.26117523722E+03  0.00000000000E+00 0.  1.
         -2   -1    0    0    0  501 -0.00000000000E+00 -0.00000000000E+00 -0.27133619021E+03  0.27133619021E+03  0.00000000000E+00 0.  1.
         21    1    1    2  503  502  0.22280832620E+02 -0.10429845322E+02  0.26003585169E+03  0.26119697805E+03  0.00000000000E+00 0.  1.
         -2    1    1    2    0  503 -0.22280832620E+02  0.10429845322E+02 -0.27019680469E+03  0.27131444937E+03  0.00000000000E+00 0.  1.
<mgrwt>
<rscale>  2 0.24601162E+02</rscale>
<asrwt>0</asrwt>
<pdfrwt beam="1">  1       21 0.40180806E-01 0.24601162E+02</pdfrwt>
<pdfrwt beam="2">  1       -2 0.41744029E-01 0.24601162E+02</pdfrwt>
<totfact> 0.27699034E+03</totfact>
</mgrwt>
</event>
<event>
 4    1  0.2177230E+006  0.2218899E+02  0.7546771E-02  0.1705004E+00
         -2   -1    0    0    0  501 -0.00000000000E+00  0.00000000000E+00  0.51998401929E+02  0.51998401929E+02  0.00000000000E+00 0. -1.
         21   -1    0    0  503  502  0.00000000000E+00 -0.00000000000E+00 -0.31198299055E+02  0.31198299055E+02  0.00000000000E+00 0.  1.
         21    1    1    2  503  501  0.11544944733E+02  0.18949028096E+02 -0.24316584319E+02  0.32918804469E+02  0.00000000000E+00 0.  1.
         -2    1    1    2    0  502 -0.11544944733E+02 -0.18949028096E+02  0.45116687193E+02  0.50277896515E+02  0.00000000000E+00 0. -1.
<mgrwt>
<rscale>  2 0.22188993E+02</rscale>
<asrwt>0</asrwt>
<pdfrwt beam="2">  1       21 0.47997383E-02 0.22188993E+02</pdfrwt>
<pdfrwt beam="1">  1       -2 0.79997541E-02 0.22188993E+02</pdfrwt>
<totfact> 0.14729869E+06</totfact>
</mgrwt>
</event>
<event>
 4    1  0.2177230E+006  0.2202591E+02  0.7546771E-02  0.1707804E+00
          2   -1    0    0  503    0 -0.00000000000E+00  0.00000000000E+00  0.42402165770E+03  0.42402165770E+03  0.00000000000E+00 0.  1.
         21   -1    0    0  501  502  0.00000000000E+00 -0.00000000000E+00 -0.14963634066E+02  0.14963634066E+02  0.00000000000E+00 0. -1.
         21    1    1    2  503  502 -0.19516432960E+02  0.10210260564E+02 -0.64054260547E+01  0.22938397050E+02  0.00000000000E+00 0. -1.
          2    1    1    2  501    0  0.19516432960E+02 -0.10210260564E+02  0.41546344968E+03  0.41604689471E+03  0.00000000000E+00 0.  1.
<mgrwt>
<rscale>  2 0.22025907E+02</rscale>
<asrwt>0</asrwt>
<pdfrwt beam="2">  1       21 0.23020979E-02 0.22025907E+02</pdfrwt>
<pdfrwt beam="1">  1        2 0.65234092E-01 0.22025907E+02</pdfrwt>
<totfact> 0.71428320E+05</totfact>
</mgrwt>
</event>
<event>
 4    1  0.2177230E+006  0.2181629E+02  0.7546771E-02  0.1711449E+00
         21   -1    0    0  501  502  0.00000000000E+00  0.00000000000E+00  0.50482462613E+02  0.50482462613E+02  0.00000000000E+00 0. -1.
         -4   -1    0    0    0  501 -0.00000000000E+00 -0.00000000000E+00 -0.26803758613E+02  0.26803758613E+02  0.00000000000E+00 0.  1.
         21    1    1    2  503  502 -0.20481449162E+02 -0.75140391366E+01  0.42952621395E+02  0.48175494068E+02  0.00000000000E+00 0. -1.
         -4    1    1    2    0  503  0.20481449162E+02  0.75140391366E+01 -0.19273917396E+02  0.29110727159E+02  0.00000000000E+00 0.  1.
<mgrwt>
<rscale>  2 0.21816291E+02</rscale>
<asrwt>0</asrwt>
<pdfrwt beam="1">  1       21 0.77665327E-02 0.21816291E+02</pdfrwt>
<pdfrwt beam="2">  1       -4 0.41236552E-02 0.21816291E+02</pdfrwt>
<totfact> 0.95732442E+05</totfact>
</mgrwt>
</event>
<event>
 4    1  0.2177230E+006  0.3960598E+02  0.7546771E-02  0.1511131E+00
         -4   -1    0    0    0  501 -0.00000000000E+00  0.00000000000E+00  0.19722591287E+03  0.19722591287E+03  0.00000000000E+00 0.  1.
         21   -1    0    0  503  502  0.00000000000E+00 -0.00000000000E+00 -0.12456557157E+02  0.12456557157E+02  0.00000000000E+00 0.  1.
         21    1    1    2  503  501 -0.22650217517E+02  0.32490017541E+02  0.29348843343E+02  0.49294910477E+02  0.00000000000E+00 0.  1.
         -4    1    1    2    0  502  0.22650217517E+02 -0.32490017541E+02  0.15542051237E+03  0.16038755955E+03  0.00000000000E+00 0.  1.
<mgrwt>
<rscale>  2 0.39605979E+02</rscale>
<asrwt>0</asrwt>
<pdfrwt beam="2">  1       21 0.19163936E-02 0.39605979E+02</pdfrwt>
<pdfrwt beam="1">  1       -4 0.30342446E-01 0.39605979E+02</pdfrwt>
<totfact> 0.40858528E+05</totfact>
</mgrwt>
</event>
<event>
 4    1  0.2177230E+006  0.2176903E+02  0.7546771E-02  0.1712277E+00
          2   -1    0    0  503    0 -0.00000000000E+00  0.00000000000E+00  0.41248384224E+02  0.41248384224E+02  0.00000000000E+00 0.  1.
         21   -1    0    0  501  502  0.00000000000E+00 -0.00000000000E+00 -0.16232589502E+02  0.16232589502E+02  0.00000000000E+00 0. -1.
         21    1    1    2  503  502  0.20121733028E+01 -0.21675832244E+02 -0.30291053467E+01  0.21978763024E+02  0.00000000000E+00 0. -1.
          2    1    1    2  501    0 -0.20121733028E+01  0.21675832244E+02  0.28044900068E+02  0.35502210702E+02  0.00000000000E+00 0.  1.
<mgrwt>
<rscale>  2 0.21769027E+02</rscale>
<asrwt>0</asrwt>
<pdfrwt beam="2">  1       21 0.24973215E-02 0.21769027E+02</pdfrwt>
<pdfrwt beam="1">  1        2 0.63459052E-02 0.21769027E+02</pdfrwt>
<totfact> 0.75391253E+06</totfact>
</mgrwt>
</event>
<event>
 4    1  0.2177230E+006  0.2855118E+02  0.7546771E-02  0.1614679E+00
         21   -1    0    0  503  502  0.00000000000E+00  0.00000000000E+00  0.47139370327E+01  0.47139370327E+01  0.00000000000E+00 0. -1.
          1   -1    0    0  502    0 -0.00000000000E+00 -0.00000000000E+00 -0.22046539156E+03  0.22046539156E+03  0.00000000000E+00 0. -1.
         21    1    1    2  503  501  0.82627228246E+01  0.27329423675E+02 -0.55594274233E+02  0.62497146450E+02  0.00000000000E+00 0. -1.
          1    1    1    2  501    0 -0.82627228246E+01 -0.27329423675E+02 -0.16015718029E+03  0.16268218214E+03  0.00000000000E+00 0. -1.
<mgrwt>
<rscale>  2 0.28551182E+02</rscale>
<asrwt>0</asrwt>
<pdfrwt beam="1">  1       21 0.72522114E-03 0.28551182E+02</pdfrwt>
<pdfrwt beam="2">  1        1 0.33917750E-01 0.28551182E+02</pdfrwt>
<totfact> 0.62917829E+06</totfact>
</mgrwt>
</event>
<event>
 4    1  0.2177230E+006  0.4238239E+02  0.7546771E-02  0.1491377E+00
          1   -1    0    0  502    0 -0.00000000000E+00  0.00000000000E+00  0.21771368227E+03  0.21771368227E+03  0.00000000000E+00 0. -1.
         21   -1    0    0  503  502  0.00000000000E+00 -0.00000000000E+00 -0.22062672989E+02  0.22062672989E+02  0.00000000000E+00 0.  1.
         21    1    1    2  503  501 -0.89857346935E+00  0.42372860857E+02  0.29668736888E+01  0.42486104917E+02  0.00000000000E+00 0.  1.
          1    1    1    2  501    0  0.89857346935E+00 -0.42372860857E+02  0.19268413559E+03  0.19729025034E+03  0.00000000000E+00 0. -1.
<mgrwt>
<rscale>  2 0.42382388E+02</rscale>
<asrwt>0</asrwt>
<pdfrwt beam="2">  1       21 0.33942575E-02 0.42382388E+02</pdfrwt>
<pdfrwt beam="1">  1        1 0.33494411E-01 0.42382388E+02</pdfrwt>
<totfact> 0.63373298E+05</totfact>
</mgrwt>
</event>
<event>
 4    1  0.2177230E+006  0.2469289E+02  0.7546771E-02  0.1665453E+00
         21   -1    0    0  503  502  0.00000000000E+00  0.00000000000E+00  0.28825269148E+01  0.28825269148E+01  0.00000000000E+00 0.  1.
          1   -1    0    0  502    0 -0.00000000000E+00 -0.00000000000E+00 -0.64981236513E+03  0.64981236513E+03  0.00000000000E+00 0. -1.
         21    1    1    2  503  501 -0.13302815243E+02  0.20803217528E+02 -0.55447140601E+02  0.60696986365E+02  0.00000000000E+00 0.  1.
          1    1    1    2  501    0  0.13302815243E+02 -0.20803217528E+02 -0.59148269761E+03  0.59199790568E+03  0.00000000000E+00 0. -1.
<mgrwt>
<rscale>  2 0.24692889E+02</rscale>
<asrwt>0</asrwt>
<pdfrwt beam="1">  1       21 0.44346504E-03 0.24692889E+02</pdfrwt>
<pdfrwt beam="2">  1        1 0.99971277E-01 0.24692889E+02</pdfrwt>
<totfact> 0.34865933E+06</totfact>
</mgrwt>
</event>
<event>
 4    1  0.2177230E+006  0.2308565E+02  0.7546771E-02  0.1690125E+00
          2   -1    0    0  502    0 -0.00000000000E+00  0.00000000000E+00  0.62563433866E+03  0.62563433866E+03  0.00000000000E+00 0.  1.
         21   -1    0    0  503  502  0.00000000000E+00 -0.00000000000E+00 -0.28862087262E+01  0.28862087262E+01  0.00000000000E+00 0.  1.
         21    1    1    2  503  501  0.27458380544E+00  0.23084021005E+02  0.47534910530E+02  0.52844253624E+02  0.00000000000E+00 0.  1.
          2    1    1    2  501    0 -0.27458380544E+00 -0.23084021005E+02  0.57521321941E+03  0.57567629377E+03  0.00000000000E+00 0.  1.
<mgrwt>
<rscale>  2 0.23085654E+02</rscale>
<asrwt>0</asrwt>
<pdfrwt beam="2">  1       21 0.44403261E-03 0.23085654E+02</pdfrwt>
<pdfrwt beam="1">  1        2 0.96251329E-01 0.23085654E+02</pdfrwt>
<totfact> 0.57610287E+06</totfact>
</mgrwt>
</event>
<event>
 4    1  0.2177230E+006  0.2948001E+02  0.7546771E-02  0.1603909E+00
          1   -1    0    0  503    0 -0.00000000000E+00  0.00000000000E+00  0.33855236339E+03  0.33855236339E+03  0.00000000000E+00 0. -1.
         21   -1    0    0  501  502  0.00000000000E+00 -0.00000000000E+00 -0.35273044767E+01  0.35273044767E+01  0.00000000000E+00 0.  1.
         21    1    1    2  503  502  0.21684871224E+02 -0.19970913693E+02  0.78269251328E+02  0.83636993832E+02  0.00000000000E+00 0.  1.
          1    1    1    2  501    0 -0.21684871224E+02  0.19970913693E+02  0.25675580759E+03  0.25844267404E+03  0.00000000000E+00 0. -1.
<mgrwt>
<rscale>  2 0.29480011E+02</rscale>
<asrwt>0</asrwt>
<pdfrwt beam="2">  1       21 0.54266250E-03 0.29480011E+02</pdfrwt>
<pdfrwt beam="1">  1        1 0.52084953E-01 0.29480011E+02</pdfrwt>
<totfact> 0.59298379E+06</totfact>
</mgrwt>
</event>
<event>
 4    1  0.2177230E+006  0.2646331E+02  0.7546771E-02  0.1640832E+00
          2   -1    0    0  503    0 -0.00000000000E+00  0.00000000000E+00  0.11554611561E+01  0.11554611561E+01  0.00000000000E+00 0.  1.
         21   -1    0    0  501  502  0.00000000000E+00 -0.00000000000E+00 -0.12967223163E+04  0.12967223163E+04  0.00000000000E+00 0. -1.
         21    1    1    2  503  502  0.23785903910E+02  0.11599021380E+02 -0.11213768283E+04  0.11216890378E+04  0.00000000000E+00 0. -1.
          2    1    1    2  501    0 -0.23785903910E+02 -0.11599021380E+02 -0.17419002679E+03  0.17618873958E+03  0.00000000000E+00 0.  1.
<mgrwt>
<rscale>  2 0.26463305E+02</rscale>
<asrwt>0</asrwt>
<pdfrwt beam="2">  1       21 0.19949584E+00 0.26463305E+02</pdfrwt>
<pdfrwt beam="1">  1        2 0.17776317E-03 0.26463305E+02</pdfrwt>
<totfact> 0.23068519E+05</totfact>
</mgrwt>
</event>
<event>
 4    1  0.2177230E+006  0.2333001E+02  0.7546771E-02  0.1686216E+00
          1   -1    0    0  503    0 -0.00000000000E+00  0.00000000000E+00  0.18003368546E+02  0.18003368546E+02  0.00000000000E+00 0. -1.
         21   -1    0    0  501  502  0.00000000000E+00 -0.00000000000E+00 -0.31390338226E+02  0.31390338226E+02  0.00000000000E+00 0.  1.
         21    1    1    2  503  502  0.19699402692E+02  0.12498912146E+02 -0.11436365915E+02  0.25982296600E+02  0.00000000000E+00 0.  1.
          1    1    1    2  501    0 -0.19699402692E+02 -0.12498912146E+02 -0.19506037648E+01  0.23411410173E+02  0.00000000000E+00 0. -1.
<mgrwt>
<rscale>  2 0.23330008E+02</rscale>
<asrwt>0</asrwt>
<pdfrwt beam="2">  1       21 0.48292827E-02 0.23330008E+02</pdfrwt>
<pdfrwt beam="1">  1        1 0.27697490E-02 0.23330008E+02</pdfrwt>
<totfact> 0.72768866E+06</totfact>
</mgrwt>
</event>
<event>
 4    1  0.2177230E+006  0.2135915E+02  0.7546771E-02  0.1719577E+00
         21   -1    0    0  501  502  0.00000000000E+00  0.00000000000E+00  0.77001773459E+00  0.77001773459E+00  0.00000000000E+00 0. -1.
         -1   -1    0    0    0  501 -0.00000000000E+00 -0.00000000000E+00 -0.12626183486E+04  0.12626183486E+04  0.00000000000E+00 0. -1.
         21    1    1    2  503  502  0.19183459872E+02  0.93919087713E+01 -0.17071419741E+03  0.17204519836E+03  0.00000000000E+00 0. -1.
         -1    1    1    2    0  503 -0.19183459872E+02 -0.93919087713E+01 -0.10911341335E+04  0.10913431680E+04  0.00000000000E+00 0. -1.
<mgrwt>
<rscale>  2 0.21359145E+02</rscale>
<asrwt>0</asrwt>
<pdfrwt beam="1">  1       21 0.11846542E-03 0.21359145E+02</pdfrwt>
<pdfrwt beam="2">  1       -1 0.19424708E+00 0.21359145E+02</pdfrwt>
<totfact> 0.12605195E+06</totfact>
</mgrwt>
</event>
<event>
 4    1  0.2177230E+006  0.2080033E+02  0.7546771E-02  0.1729865E+00
          3   -1    0    0  502    0 -0.00000000000E+00  0.00000000000E+00  0.54072325101E+02  0.54072325101E+02  0.00000000000E+00 0.  1.
         21   -1    0    0  503  502  0.00000000000E+00 -0.00000000000E+00 -0.11302301062E+04  0.11302301062E+04  0.00000000000E+00 0. -1.
         21    1    1    2  503  501 -0.20798840568E+02  0.24928024552E+00 -0.11281303347E+04  0.11283220755E+04  0.00000000000E+00 0. -1.
          3    1    1    2  501    0  0.20798840568E+02 -0.24928024552E+00  0.51972553612E+02  0.55980355827E+02  0.00000000000E+00 0.  1.
<mgrwt>
<rscale>  2 0.20800334E+02</rscale>
<asrwt>0</asrwt>
<pdfrwt beam="2">  1       21 0.17388155E+00 0.20800334E+02</pdfrwt>
<pdfrwt beam="1">  1        3 0.83188196E-02 0.20800334E+02</pdfrwt>
<totfact> 0.10091009E+03</totfact>
</mgrwt>
</event>
<event>
 4    1  0.2177230E+006  0.2381110E+02  0.7546771E-02  0.1678690E+00
          3   -1    0    0  503    0 -0.00000000000E+00  0.00000000000E+00  0.52153580115E+02  0.52153580115E+02  0.00000000000E+00 0. -1.
         21   -1    0    0  501  502  0.00000000000E+00 -0.00000000000E+00 -0.31824321099E+03  0.31824321099E+03  0.00000000000E+00 0.  1.
         21    1    1    2  503  502  0.19763027086E+02  0.13281241965E+02 -0.31505255290E+03  0.31595107171E+03  0.00000000000E+00 0.  1.
          3    1    1    2  501    0 -0.19763027086E+02 -0.13281241965E+02  0.48962922021E+02  0.54445719396E+02  0.00000000000E+00 0. -1.
<mgrwt>
<rscale>  2 0.23811103E+02</rscale>
<asrwt>0</asrwt>
<pdfrwt beam="2">  1       21 0.48960493E-01 0.23811103E+02</pdfrwt>
<pdfrwt beam="1">  1        3 0.80236278E-02 0.23811103E+02</pdfrwt>
<totfact> 0.16810311E+04</totfact>
</mgrwt>
</event>
<event>
 4    1  0.2177230E+006  0.2043273E+02  0.7546771E-02  0.1736857E+00
         -1   -1    0    0    0  501 -0.00000000000E+00  0.00000000000E+00  0.11241461069E+04  0.11241461069E+04  0.00000000000E+00 0. -1.
         21   -1    0    0  501  502  0.00000000000E+00 -0.00000000000E+00 -0.15100397439E+02  0.15100397439E+02  0.00000000000E+00 0. -1.
         21    1    1    2  503  502  0.11558851304E+02  0.16849014768E+02 -0.80519323085E+01  0.21962011657E+02  0.00000000000E+00 0. -1.
         -1    1    1    2    0  503 -0.11558851304E+02 -0.16849014768E+02  0.11170976418E+04  0.11172844927E+04  0.00000000000E+00 0. -1.
<mgrwt>
<rscale>  2 0.20432727E+02</rscale>
<asrwt>0</asrwt>
<pdfrwt beam="2">  1       21 0.23231390E-02 0.20432727E+02</pdfrwt>
<pdfrwt beam="1">  1       -1 0.17294549E+00 0.20432727E+02</pdfrwt>
<totfact> 0.21337501E+04</totfact>
</mgrwt>
</event>
<event>
 4    1  0.2177230E+006  0.2438089E+02  0.7546771E-02  0.1670057E+00
         -1   -1    0    0    0  501 -0.00000000000E+00  0.00000000000E+00  0.51707048194E+03  0.51707048194E+03  0.00000000000E+00 0. -1.
         21   -1    0    0  503  502  0.00000000000E+00 -0.00000000000E+00 -0.41243844118E+01  0.41243844118E+01  0.00000000000E+00 0. -1.
         21    1    1    2  503  501  0.22866449496E+02 -0.84589307382E+01  0.35154518238E+02  0.42781633610E+02  0.00000000000E+00 0. -1.
         -1    1    1    2    0  502 -0.22866449496E+02  0.84589307382E+01  0.47779157929E+03  0.47841323274E+03  0.00000000000E+00 0. -1.
<mgrwt>
<rscale>  2 0.24380895E+02</rscale>
<asrwt>0</asrwt>
<pdfrwt beam="2">  1       21 0.63452109E-03 0.24380895E+02</pdfrwt>
<pdfrwt beam="1">  1       -1 0.79549254E-01 0.24380895E+02</pdfrwt>
<totfact> 0.88610608E+05</totfact>
</mgrwt>
</event>
<event>
 4    1  0.2177230E+006  0.2950598E+02  0.7546771E-02  0.1603615E+00
         21   -1    0    0  501  502  0.00000000000E+00  0.00000000000E+00  0.22498563129E+02  0.22498563129E+02  0.00000000000E+00 0.  1.
          2   -1    0    0  503    0 -0.00000000000E+00 -0.00000000000E+00 -0.80664066203E+02  0.80664066203E+02  0.00000000000E+00 0.  1.
         21    1    1    2  503  502  0.29486007638E+02 -0.10853186970E+01  0.81231860290E+01  0.30603736934E+02  0.00000000000E+00 0.  1.
          2    1    1    2  501    0 -0.29486007638E+02  0.10853186970E+01 -0.66288689103E+02  0.72558892398E+02  0.00000000000E+00 0.  1.
<mgrwt>
<rscale>  2 0.29505975E+02</rscale>
<asrwt>0</asrwt>
<pdfrwt beam="1">  1       21 0.34613173E-02 0.29505975E+02</pdfrwt>
<pdfrwt beam="2">  1        2 0.12409857E-01 0.29505975E+02</pdfrwt>
<totfact> 0.22350555E+06</totfact>
</mgrwt>
</event>
<event>
 4    1  0.2177230E+006  0.2352840E+02  0.7546771E-02  0.1683085E+00
         -1   -1    0    0    0  501 -0.00000000000E+00  0.00000000000E+00  0.63912593602E+01  0.63912593602E+01  0.00000000000E+00 0.  1.
         21   -1    0    0  503  502  0.00000000000E+00 -0.00000000000E+00 -0.23537716400E+03  0.23537716400E+03  0.00000000000E+00 0.  1.
         21    1    1    2  503  501  0.15609607290E+02 -0.17604705715E+02 -0.21059489392E+03  0.21190515532E+03  0.00000000000E+00 0.  1.
         -1    1    1    2    0  502 -0.15609607290E+02  0.17604705715E+02 -0.18391010716E+02  0.29863268043E+02  0.00000000000E+00 0.  1.
<mgrwt>
<rscale>  2 0.23528398E+02</rscale>
<asrwt>0</asrwt>
<pdfrwt beam="2">  1       21 0.36211869E-01 0.23528398E+02</pdfrwt>
<pdfrwt beam="1">  1       -1 0.98327075E-03 0.23528398E+02</pdfrwt>
<totfact> 0.89941457E+05</totfact>
</mgrwt>
</event>
<event>
 4    1  0.2177230E+006  0.2096155E+02  0.7546771E-02  0.1726856E+00
          1   -1    0    0  502    0 -0.00000000000E+00  0.00000000000E+00  0.21442102249E+03  0.21442102249E+03  0.00000000000E+00 0.  1.
         21   -1    0    0  503  502  0.00000000000E+00 -0.00000000000E+00 -0.69286449272E+01  0.69286449272E+01  0.00000000000E+00 0. -1.
         21    1    1    2  503  501 -0.72984627537E+01 -0.19649906735E+02  0.10868583794E+02  0.23611702754E+02  0.00000000000E+00 0. -1.
          1    1    1    2  501    0  0.72984627537E+01  0.19649906735E+02  0.19662379377E+03  0.19773796467E+03  0.00000000000E+00 0.  1.
<mgrwt>
<rscale>  2 0.20961546E+02</rscale>
<asrwt>0</asrwt>
<pdfrwt beam="2">  1       21 0.10659455E-02 0.20961546E+02</pdfrwt>
<pdfrwt beam="1">  1        1 0.32987845E-01 0.20961546E+02</pdfrwt>
<totfact> 0.33723515E+06</totfact>
</mgrwt>
</event>
<event>
 4    1  0.2177230E+006  0.2495662E+02  0.7546771E-02  0.1661626E+00
         21   -1    0    0  501  502  0.00000000000E+00  0.00000000000E+00  0.25865817759E+01  0.25865817759E+01  0.00000000000E+00 0. -1.
          2   -1    0    0  503    0 -0.00000000000E+00 -0.00000000000E+00 -0.29852419095E+03  0.29852419095E+03  0.00000000000E+00 0. -1.
         21    1    1    2  503  502 -0.24593344601E+02 -0.42426462551E+01 -0.81761015453E+02  0.85485064741E+02  0.00000000000E+00 0. -1.
          2    1    1    2  501    0  0.24593344601E+02  0.42426462551E+01 -0.21417659372E+03  0.21562570799E+03  0.00000000000E+00 0. -1.
<mgrwt>
<rscale>  2 0.24956615E+02</rscale>
<asrwt>0</asrwt>
<pdfrwt beam="1">  1       21 0.39793553E-03 0.24956615E+02</pdfrwt>
<pdfrwt beam="2">  1        2 0.45926813E-01 0.24956615E+02</pdfrwt>
<totfact> 0.14532049E+07</totfact>
</mgrwt>
</event>
<event>
 4    1  0.2177230E+006  0.4052059E+02  0.7546771E-02  0.1504415E+00
         21   -1    0    0  501  502  0.00000000000E+00  0.00000000000E+00  0.95656037904E+00  0.95656037904E+00  0.00000000000E+00 0.  1.
          2   -1    0    0  503    0 -0.00000000000E+00 -0.00000000000E+00 -0.24468171598E+04  0.24468171598E+04  0.00000000000E+00 0.  1.
         21    1    1    2  503  502  0.36140572576E+02 -0.18324215214E+02 -0.55427564273E+03  0.55575480742E+03  0.00000000000E+00 0.  1.
          2    1    1    2  501    0 -0.36140572576E+02  0.18324215214E+02 -0.18915849567E+04  0.18920189127E+04  0.00000000000E+00 0.  1.
<mgrwt>
<rscale>  2 0.40520586E+02</rscale>
<asrwt>0</asrwt>
<pdfrwt beam="1">  1       21 0.14716330E-03 0.40520586E+02</pdfrwt>
<pdfrwt beam="2">  1        2 0.37643299E+00 0.40520586E+02</pdfrwt>
<totfact> 0.36621640E+06</totfact>
</mgrwt>
</event>
<event>
 4    1  0.2177230E+006  0.2923675E+02  0.7546771E-02  0.1606682E+00
         21   -1    0    0  503  502  0.00000000000E+00  0.00000000000E+00  0.79110153765E+03  0.79110153765E+03  0.00000000000E+00 0.  1.
          3   -1    0    0  502    0 -0.00000000000E+00 -0.00000000000E+00 -0.12626705468E+01  0.12626705468E+01  0.00000000000E+00 0.  1.
         21    1    1    2  503  501 -0.27803322730E+02 -0.90422717290E+01  0.54540178291E+03  0.54618485170E+03  0.00000000000E+00 0.  1.
          3    1    1    2  501    0  0.27803322730E+02  0.90422717290E+01  0.24443708420E+03  0.24617935649E+03  0.00000000000E+00 0.  1.
<mgrwt>
<rscale>  2 0.29236748E+02</rscale>
<asrwt>0</asrwt>
<pdfrwt beam="1">  1       21 0.12170753E+00 0.29236748E+02</pdfrwt>
<pdfrwt beam="2">  1        3 0.19425764E-03 0.29236748E+02</pdfrwt>
<totfact> 0.57305185E+05</totfact>
</mgrwt>
</event>
<event>
 4    1  0.2177230E+006  0.2354780E+02  0.7546771E-02  0.1682781E+00
         21   -1    0    0  503  502  0.00000000000E+00  0.00000000000E+00  0.26594893801E+02  0.26594893801E+02  0.00000000000E+00 0. -1.
          4   -1    0    0  502    0 -0.00000000000E+00 -0.00000000000E+00 -0.81631044080E+02  0.81631044080E+02  0.00000000000E+00 0. -1.
         21    1    1    2  503  501 -0.22835977619E+02 -0.57460447366E+01  0.19175635428E+02  0.30367810227E+02  0.00000000000E+00 0. -1.
          4    1    1    2  501    0  0.22835977619E+02  0.57460447366E+01 -0.74211785707E+02  0.77858127654E+02  0.00000000000E+00 0. -1.
<mgrwt>
<rscale>  2 0.23547800E+02</rscale>
<asrwt>0</asrwt>
<pdfrwt beam="1">  1       21 0.40915222E-02 0.23547800E+02</pdfrwt>
<pdfrwt beam="2">  1        4 0.12558622E-01 0.23547800E+02</pdfrwt>
<totfact> 0.47893255E+05</totfact>
</mgrwt>
</event>
<event>
 4    1  0.2177230E+006  0.2929435E+02  0.7546771E-02  0.1606022E+00
         21   -1    0    0  503  502  0.00000000000E+00  0.00000000000E+00  0.16202606630E+02  0.16202606630E+02  0.00000000000E+00 0. -1.
         -2   -1    0    0    0  501 -0.00000000000E+00 -0.00000000000E+00 -0.21480286715E+03  0.21480286715E+03  0.00000000000E+00 0. -1.
         21    1    1    2  503  501 -0.17879143567E+02  0.23205503742E+02  0.95654428863E+00  0.29309966830E+02  0.00000000000E+00 0. -1.
         -2    1    1    2    0  502  0.17879143567E+02 -0.23205503742E+02 -0.19955680481E+03  0.20169550695E+03  0.00000000000E+00 0. -1.
<mgrwt>
<rscale>  2 0.29294354E+02</rscale>
<asrwt>0</asrwt>
<pdfrwt beam="1">  1       21 0.24927087E-02 0.29294354E+02</pdfrwt>
<pdfrwt beam="2">  1       -2 0.33046595E-01 0.29294354E+02</pdfrwt>
<totfact> 0.46327434E+05</totfact>
</mgrwt>
</event>
<event>
 4    1  0.2177230E+006  0.2503270E+02  0.7546771E-02  0.1660533E+00
         21   -1    0    0  501  502  0.00000000000E+00  0.00000000000E+00  0.84992325198E+00  0.84992325198E+00  0.00000000000E+00 0. -1.
          2   -1    0    0  503    0 -0.00000000000E+00 -0.00000000000E+00 -0.73803198790E+03  0.73803198790E+03  0.00000000000E+00 0. -1.
         21    1    1    2  503  502  0.17293392792E+02 -0.18099022529E+02 -0.38034087891E+03  0.38116377086E+03  0.00000000000E+00 0. -1.
          2    1    1    2  501    0 -0.17293392792E+02  0.18099022529E+02 -0.35684118574E+03  0.35771814029E+03  0.00000000000E+00 0. -1.
<mgrwt>
<rscale>  2 0.25032700E+02</rscale>
<asrwt>0</asrwt>
<pdfrwt beam="1">  1       21 0.13075819E-03 0.25032700E+02</pdfrwt>
<pdfrwt beam="2">  1        2 0.11354272E+00 0.25032700E+02</pdfrwt>
<totfact> 0.29066702E+07</totfact>
</mgrwt>
</event>
<event>
 4    1  0.2177230E+006  0.2813449E+02  0.7546771E-02  0.1619675E+00
         21   -1    0    0  501  502  0.00000000000E+00  0.00000000000E+00  0.39182092164E+02  0.39182092164E+02  0.00000000000E+00 0.  1.
          1   -1    0    0  503    0 -0.00000000000E+00 -0.00000000000E+00 -0.81043128807E+03  0.81043128807E+03  0.00000000000E+00 0. -1.
         21    1    1    2  503  502 -0.28002504638E+02  0.27220440986E+01  0.33854047384E+02  0.44018704142E+02  0.00000000000E+00 0.  1.
          1    1    1    2  501    0  0.28002504638E+02 -0.27220440986E+01 -0.80510324329E+03  0.80559467609E+03  0.00000000000E+00 0. -1.
<mgrwt>
<rscale>  2 0.28134495E+02</rscale>
<asrwt>0</asrwt>
<pdfrwt beam="1">  1       21 0.60280147E-02 0.28134495E+02</pdfrwt>
<pdfrwt beam="2">  1        1 0.12468173E+00 0.28134495E+02</pdfrwt>
<totfact> 0.47843030E+04</totfact>
</mgrwt>
</event>
<event>
 4    1  0.2177230E+006  0.2408143E+02  0.7546771E-02  0.1674557E+00
          2   -1    0    0  502    0 -0.00000000000E+00  0.00000000000E+00  0.52969867563E+03  0.52969867563E+03  0.00000000000E+00 0.  1.
         21   -1    0    0  503  502  0.00000000000E+00 -0.00000000000E+00 -0.40929402879E+01  0.40929402879E+01  0.00000000000E+00 0.  1.
         21    1    1    2  503  501 -0.23618062628E+01 -0.23965327112E+02  0.34374573180E+02  0.41970541022E+02  0.00000000000E+00 0.  1.
          2    1    1    2  501    0  0.23618062628E+01  0.23965327112E+02  0.49123116216E+03  0.49182107490E+03  0.00000000000E+00 0.  1.
<mgrwt>
<rscale>  2 0.24081425E+02</rscale>
<asrwt>0</asrwt>
<pdfrwt beam="2">  1       21 0.62968354E-03 0.24081425E+02</pdfrwt>
<pdfrwt beam="1">  1        2 0.81492050E-01 0.24081425E+02</pdfrwt>
<totfact> 0.41260633E+06</totfact>
</mgrwt>
</event>
<event>
 4    1  0.2177230E+006  0.2661543E+02  0.7546771E-02  0.1638827E+00
         -1   -1    0    0    0  501 -0.00000000000E+00  0.00000000000E+00  0.92674301197E+01  0.92674301197E+01  0.00000000000E+00 0. -1.
         21   -1    0    0  503  502  0.00000000000E+00 -0.00000000000E+00 -0.36130202090E+03  0.36130202090E+03  0.00000000000E+00 0.  1.
         21    1    1    2  503  501  0.25121219652E+02  0.87923518751E+01 -0.34053909253E+03  0.34157759685E+03  0.00000000000E+00 0.  1.
         -1    1    1    2    0  502 -0.25121219652E+02 -0.87923518751E+01 -0.11495498253E+02  0.28991854173E+02  0.00000000000E+00 0. -1.
<mgrwt>
<rscale>  2 0.26615430E+02</rscale>
<asrwt>0</asrwt>
<pdfrwt beam="2">  1       21 0.55584918E-01 0.26615430E+02</pdfrwt>
<pdfrwt beam="1">  1       -1 0.14257587E-02 0.26615430E+02</pdfrwt>
<totfact> 0.24408937E+05</totfact>
</mgrwt>
</event>
<event>
 4    1  0.2177230E+006  0.2521687E+02  0.7546771E-02  0.1657906E+00
         21   -1    0    0  501  502  0.00000000000E+00  0.00000000000E+00  0.23393450416E+01  0.23393450416E+01  0.00000000000E+00 0.  1.
          1   -1    0    0  503    0 -0.00000000000E+00 -0.00000000000E+00 -0.31022424408E+03  0.31022424408E+03  0.00000000000E+00 0.  1.
         21    1    1    2  503  502 -0.14182711547E+02  0.20850443808E+02 -0.98958356975E+02  0.10212074583E+03  0.00000000000E+00 0.  1.
          1    1    1    2  501    0  0.14182711547E+02 -0.20850443808E+02 -0.20892654207E+03  0.21044284329E+03  0.00000000000E+00 0.  1.
<mgrwt>
<rscale>  2 0.25216866E+02</rscale>
<asrwt>0</asrwt>
<pdfrwt beam="1">  1       21 0.35989953E-03 0.25216866E+02</pdfrwt>
<pdfrwt beam="2">  1        1 0.47726768E-01 0.25216866E+02</pdfrwt>
<totfact> 0.11580796E+07</totfact>
</mgrwt>
</event>
<event>
 4    1  0.2177230E+006  0.3563357E+02  0.7546771E-02  0.1543045E+00
         21   -1    0    0  501  502  0.00000000000E+00  0.00000000000E+00  0.10052651327E+03  0.10052651327E+03  0.00000000000E+00 0. -1.
          4   -1    0    0  503    0 -0.00000000000E+00 -0.00000000000E+00 -0.30972548852E+03  0.30972548852E+03  0.00000000000E+00 0.  1.
         21    1    1    2  503  502  0.27927385999E+02  0.22131700842E+02  0.96300325366E+02  0.10268156473E+03  0.00000000000E+00 0. -1.
          4    1    1    2  501    0 -0.27927385999E+02 -0.22131700842E+02 -0.30549930062E+03  0.30757043705E+03  0.00000000000E+00 0.  1.
<mgrwt>
<rscale>  2 0.35633567E+02</rscale>
<asrwt>0</asrwt>
<pdfrwt beam="1">  1       21 0.15465618E-01 0.35633567E+02</pdfrwt>
<pdfrwt beam="2">  1        4 0.47650075E-01 0.35633567E+02</pdfrwt>
<totfact> 0.55825599E+03</totfact>
</mgrwt>
</event>
<event>
 4    1  0.2177230E+006  0.2406794E+02  0.7546771E-02  0.1674762E+00
          2   -1    0    0  502    0 -0.00000000000E+00  0.00000000000E+00  0.49716031179E+03  0.49716031179E+03  0.00000000000E+00 0.  1.
         21   -1    0    0  503  502  0.00000000000E+00 -0.00000000000E+00 -0.33973317985E+03  0.33973317985E+03  0.00000000000E+00 0.  1.
         21    1    1    2  503  501  0.14850312801E+02 -0.18940276085E+02 -0.33901501102E+03  0.33986827382E+03  0.00000000000E+00 0.  1.
          2    1    1    2  501    0 -0.14850312801E+02  0.18940276085E+02  0.49644214296E+03  0.49702521782E+03  0.00000000000E+00 0.  1.
<mgrwt>
<rscale>  2 0.24067942E+02</rscale>
<asrwt>0</asrwt>
<pdfrwt beam="2">  1       21 0.52266643E-01 0.24067942E+02</pdfrwt>
<pdfrwt beam="1">  1        2 0.76486201E-01 0.24067942E+02</pdfrwt>
<totfact> 0.31151322E+03</totfact>
</mgrwt>
</event>
<event>
 4    1  0.2177230E+006  0.2453408E+02  0.7546771E-02  0.1667786E+00
         21   -1    0    0  501  502  0.00000000000E+00  0.00000000000E+00  0.34018539238E+02  0.34018539238E+02  0.00000000000E+00 0.  1.
          3   -1    0    0  503    0 -0.00000000000E+00 -0.00000000000E+00 -0.18353877554E+03  0.18353877554E+03  0.00000000000E+00 0.  1.
         21    1    1    2  503  502  0.98191757070E+01 -0.22483437620E+02  0.28642321732E+02  0.37713442868E+02  0.00000000000E+00 0.  1.
          3    1    1    2  501    0 -0.98191757070E+01  0.22483437620E+02 -0.17816255803E+03  0.17984387191E+03  0.00000000000E+00 0.  1.
<mgrwt>
<rscale>  2 0.24534082E+02</rscale>
<asrwt>0</asrwt>
<pdfrwt beam="1">  1       21 0.52336215E-02 0.24534082E+02</pdfrwt>
<pdfrwt beam="2">  1        3 0.28236734E-01 0.24534082E+02</pdfrwt>
<totfact> 0.10401004E+05</totfact>
</mgrwt>
</event>
<event>
 4    1  0.2177230E+006  0.3021255E+02  0.7546771E-02  0.1595751E+00
          1   -1    0    0  503    0 -0.00000000000E+00  0.00000000000E+00  0.23359160216E+02  0.23359160216E+02  0.00000000000E+00 0. -1.
         21   -1    0    0  501  502  0.00000000000E+00 -0.00000000000E+00 -0.18686046554E+03  0.18686046554E+03  0.00000000000E+00 0. -1.
         21    1    1    2  503  502 -0.28616400970E+02  0.96901879382E+01 -0.17522618797E+03  0.17781174060E+03  0.00000000000E+00 0. -1.
          1    1    1    2  501    0  0.28616400970E+02 -0.96901879382E+01  0.11724882647E+02  0.32407885149E+02  0.00000000000E+00 0. -1.
<mgrwt>
<rscale>  2 0.30212549E+02</rscale>
<asrwt>0</asrwt>
<pdfrwt beam="2">  1       21 0.28747765E-01 0.30212549E+02</pdfrwt>
<pdfrwt beam="1">  1        1 0.35937168E-02 0.30212549E+02</pdfrwt>
<totfact> 0.26817077E+05</totfact>
</mgrwt>
</event>
<event>
 4    1  0.2177230E+006  0.2188320E+02  0.7546771E-02  0.1710280E+00
         21   -1    0    0  501  502  0.00000000000E+00  0.00000000000E+00  0.63100245983E+03  0.63100245983E+03  0.00000000000E+00 0. -1.
         -4   -1    0    0    0  501 -0.00000000000E+00 -0.00000000000E+00 -0.78434239740E+00  0.78434239740E+00  0.00000000000E+00 0. -1.
         21    1    1    2  503  502  0.13810037969E+02 -0.16975195700E+02  0.37199130587E+03  0.37263441342E+03  0.00000000000E+00 0. -1.
         -4    1    1    2    0  503 -0.13810037969E+02  0.16975195700E+02  0.25822681157E+03  0.25915238882E+03  0.00000000000E+00 0. -1.
<mgrwt>
<rscale>  2 0.21883199E+02</rscale>
<asrwt>0</asrwt>
<pdfrwt beam="1">  1       21 0.97076896E-01 0.21883199E+02</pdfrwt>
<pdfrwt beam="2">  1       -4 0.12066857E-03 0.21883199E+02</pdfrwt>
<totfact> 0.14753500E+06</totfact>
</mgrwt>
</event>
<event>
 4    1  0.2177230E+006  0.2612418E+02  0.7546771E-02  0.1645361E+00
          2   -1    0    0  503    0 -0.00000000000E+00  0.00000000000E+00  0.10591000731E+03  0.10591000731E+03  0.00000000000E+00 0.  1.
         21   -1    0    0  501  502  0.00000000000E+00 -0.00000000000E+00 -0.81393150088E+01  0.81393150088E+01  0.00000000000E+00 0.  1.
         21    1    1    2  503  502  0.17919872116E+02 -0.19009236775E+02  0.22859340590E+02  0.34713431862E+02  0.00000000000E+00 0.  1.
          2    1    1    2  501    0 -0.17919872116E+02  0.19009236775E+02  0.74911351714E+02  0.79335890460E+02  0.00000000000E+00 0.  1.
<mgrwt>
<rscale>  2 0.26124182E+02</rscale>
<asrwt>0</asrwt>
<pdfrwt beam="2">  1       21 0.12522024E-02 0.26124182E+02</pdfrwt>
<pdfrwt beam="1">  1        2 0.16293846E-01 0.26124182E+02</pdfrwt>
<totfact> 0.77315805E+06</totfact>
</mgrwt>
</event>
<event>
 4    1  0.2177230E+006  0.2414214E+02  0.7546771E-02  0.1673638E+00
         21   -1    0    0  503  502  0.00000000000E+00  0.00000000000E+00  0.33054126951E+01  0.33054126951E+01  0.00000000000E+00 0.  1.
         -4   -1    0    0    0  501 -0.00000000000E+00 -0.00000000000E+00 -0.19908657259E+03  0.19908657259E+03  0.00000000000E+00 0.  1.
         21    1    1    2  503  501  0.16892874764E+02 -0.17247429516E+02 -0.63677131732E+02  0.68100074510E+02  0.00000000000E+00 0.  1.
         -4    1    1    2    0  502 -0.16892874764E+02  0.17247429516E+02 -0.13210402816E+03  0.13429191078E+03  0.00000000000E+00 0.  1.
<mgrwt>
<rscale>  2 0.24142142E+02</rscale>
<asrwt>0</asrwt>
<pdfrwt beam="1">  1       21 0.50852512E-03 0.24142142E+02</pdfrwt>
<pdfrwt beam="2">  1       -4 0.30628698E-01 0.24142142E+02</pdfrwt>
<totfact> 0.25035085E+06</totfact>
</mgrwt>
</event>
<event>
 4    1  0.2177230E+006  0.3797922E+02  0.7546771E-02  0.1523632E+00
          1   -1    0    0  502    0 -0.00000000000E+00  0.00000000000E+00  0.51422733151E+03  0.51422733151E+03  0.00000000000E+00 0. -1.
         21   -1    0    0  503  502  0.00000000000E+00 -0.00000000000E+00 -0.21627892983E+02  0.21627892983E+02  0.00000000000E+00 0.  1.
         21    1    1    2  503  501 -0.12336763232E+02 -0.35919708961E+02 -0.36503435191E+01  0.38154242578E+02  0.00000000000E+00 0.  1.
          1    1    1    2  501    0  0.12336763232E+02  0.35919708961E+02  0.49624978204E+03  0.49770098191E+03  0.00000000000E+00 0. -1.
<mgrwt>
<rscale>  2 0.37979221E+02</rscale>
<asrwt>0</asrwt>
<pdfrwt beam="2">  1       21 0.33273685E-02 0.37979221E+02</pdfrwt>
<pdfrwt beam="1">  1        1 0.79111888E-01 0.37979221E+02</pdfrwt>
<totfact> 0.23080823E+05</totfact>
</mgrwt>
</event>
<event>
 4    1  0.2177230E+006  0.2096987E+02  0.7546771E-02  0.1726702E+00
         21   -1    0    0  501  502  0.00000000000E+00  0.00000000000E+00  0.17564095920E+02  0.17564095920E+02  0.00000000000E+00 0.  1.
          2   -1    0    0  503    0 -0.00000000000E+00 -0.00000000000E+00 -0.70610200364E+02  0.70610200364E+02  0.00000000000E+00 0. -1.
         21    1    1    2  503  502 -0.41868844599E+01 -0.20547640520E+02  0.88960532792E+01  0.22778834394E+02  0.00000000000E+00 0.  1.
          2    1    1    2  501    0  0.41868844599E+01  0.20547640520E+02 -0.61942157723E+02  0.65395461890E+02  0.00000000000E+00 0. -1.
<mgrwt>
<rscale>  2 0.20969872E+02</rscale>
<asrwt>0</asrwt>
<pdfrwt beam="1">  1       21 0.27021686E-02 0.20969872E+02</pdfrwt>
<pdfrwt beam="2">  1        2 0.10863108E-01 0.20969872E+02</pdfrwt>
<totfact> 0.35258352E+06</totfact>
</mgrwt>
</event>
<event>
 4    1  0.2177230E+006  0.4498528E+02  0.7546771E-02  0.1474434E+00
          2   -1    0    0  503    0 -0.00000000000E+00  0.00000000000E+00  0.43028003558E+03  0.43028003558E+03  0.00000000000E+00 0.  1.
         21   -1    0    0  501  502  0.00000000000E+00 -0.00000000000E+00 -0.75025446076E+01  0.75025446076E+01  0.00000000000E+00 0. -1.
         21    1    1    2  503  502  0.18997606510E+02 -0.40777032260E+02  0.77681312163E+02  0.89766706926E+02  0.00000000000E+00 0. -1.
          2    1    1    2  501    0 -0.18997606510E+02  0.40777032260E+02  0.34509617881E+03  0.34801587326E+03  0.00000000000E+00 0.  1.
<mgrwt>
<rscale>  2 0.44985280E+02</rscale>
<asrwt>0</asrwt>
<pdfrwt beam="2">  1       21 0.11542380E-02 0.44985280E+02</pdfrwt>
<pdfrwt beam="1">  1        2 0.66196909E-01 0.44985280E+02</pdfrwt>
<totfact> 0.23032822E+06</totfact>
</mgrwt>
</event>
<event>
 4    1  0.2177230E+006  0.3799936E+02  0.7546771E-02  0.1523472E+00
         -4   -1    0    0    0  501 -0.00000000000E+00  0.00000000000E+00  0.37346325337E+02  0.37346325337E+02  0.00000000000E+00 0.  1.
         21   -1    0    0  501  502  0.00000000000E+00 -0.00000000000E+00 -0.38797411659E+02  0.38797411659E+02  0.00000000000E+00 0. -1.
         21    1    1    2  503  502 -0.23469528880E+02 -0.29885329227E+02  0.15084849881E+01  0.38029294180E+02  0.00000000000E+00 0. -1.
         -4    1    1    2    0  503  0.23469528880E+02  0.29885329227E+02 -0.29595713097E+01  0.38114442816E+02  0.00000000000E+00 0.  1.
<mgrwt>
<rscale>  2 0.37999364E+02</rscale>
<asrwt>0</asrwt>
<pdfrwt beam="2">  1       21 0.59688325E-02 0.37999364E+02</pdfrwt>
<pdfrwt beam="1">  1       -4 0.57455885E-02 0.37999364E+02</pdfrwt>
<totfact> 0.10834786E+06</totfact>
</mgrwt>
</event>
<event>
 4    1  0.2177230E+006  0.2276458E+02  0.7546771E-02  0.1695355E+00
         21   -1    0    0  501  502  0.00000000000E+00  0.00000000000E+00  0.85342653295E+03  0.85342653295E+03  0.00000000000E+00 0.  1.
         -2   -1    0    0    0  501 -0.00000000000E+00 -0.00000000000E+00 -0.73727881786E+00  0.73727881786E+00  0.00000000000E+00 0.  1.
         21    1    1    2  503  502  0.20674207651E+02 -0.95290760452E+01  0.60571411943E+03  0.60614174962E+03  0.00000000000E+00 0.  1.
         -2    1    1    2    0  503 -0.20674207651E+02  0.95290760452E+01  0.24697513470E+03  0.24802206215E+03  0.00000000000E+00 0.  1.
<mgrwt>
<rscale>  2 0.22764581E+02</rscale>
<asrwt>0</asrwt>
<pdfrwt beam="1">  1       21 0.13129560E+00 0.22764581E+02</pdfrwt>
<pdfrwt beam="2">  1       -2 0.11342819E-03 0.22764581E+02</pdfrwt>
<totfact> 0.11174300E+06</totfact>
</mgrwt>
</event>
<event>
 4    1  0.2177230E+006  0.2455214E+02  0.7546771E-02  0.1667519E+00
          2   -1    0    0  503    0 -0.00000000000E+00  0.00000000000E+00  0.13255497728E+03  0.13255497728E+03  0.00000000000E+00 0.  1.
         21   -1    0    0  501  502  0.00000000000E+00 -0.00000000000E+00 -0.53824090695E+01  0.53824090695E+01  0.00000000000E+00 0.  1.
         21    1    1    2  503  502  0.25057909956E+01 -0.24423939097E+02  0.36424661853E+02  0.43926800255E+02  0.00000000000E+00 0.  1.
          2    1    1    2  501    0 -0.25057909956E+01  0.24423939097E+02  0.90747906360E+02  0.94010586096E+02  0.00000000000E+00 0.  1.
<mgrwt>
<rscale>  2 0.24552144E+02</rscale>
<asrwt>0</asrwt>
<pdfrwt beam="2">  1       21 0.82806303E-03 0.24552144E+02</pdfrwt>
<pdfrwt beam="1">  1        2 0.20393071E-01 0.24552144E+02</pdfrwt>
<totfact> 0.11139618E+07</totfact>
</mgrwt>
</event>
<event>
 4    1  0.2177230E+006  0.4838094E+02  0.7546771E-02  0.1454275E+00
         21   -1    0    0  503  502  0.00000000000E+00  0.00000000000E+00  0.88366265170E+01  0.88366265170E+01  0.00000000000E+00 0.  1.
          2   -1    0    0  502    0 -0.00000000000E+00 -0.00000000000E+00 -0.38146049739E+03  0.38146049739E+03  0.00000000000E+00 0.  1.
         21    1    1    2  503  501 -0.29003026953E+02 -0.38723888918E+02 -0.78432449347E+02  0.92154024633E+02  0.00000000000E+00 0.  1.
          2    1    1    2  501    0  0.29003026953E+02  0.38723888918E+02 -0.29419142152E+03  0.29814309927E+03  0.00000000000E+00 0.  1.
<mgrwt>
<rscale>  2 0.48380938E+02</rscale>
<asrwt>0</asrwt>
<pdfrwt beam="1">  1       21 0.13594808E-02 0.48380938E+02</pdfrwt>
<pdfrwt beam="2">  1        2 0.58686241E-01 0.48380938E+02</pdfrwt>
<totfact> 0.20462994E+06</totfact>
</mgrwt>
</event>
<event>
 4    1  0.2177230E+006  0.2748692E+02  0.7546771E-02  0.1627653E+00
         -2   -1    0    0    0  501 -0.00000000000E+00  0.00000000000E+00  0.42949997934E+01  0.42949997934E+01  0.00000000000E+00 0. -1.
         21   -1    0    0  501  502  0.00000000000E+00 -0.00000000000E+00 -0.65944890525E+03  0.65944890525E+03  0.00000000000E+00 0. -1.
         21    1    1    2  503  502  0.16864018727E+02 -0.21705658768E+02 -0.61175855894E+03  0.61237575489E+03  0.00000000000E+00 0. -1.
         -2    1    1    2    0  503 -0.16864018727E+02  0.21705658768E+02 -0.43395346524E+02  0.51368150153E+02  0.00000000000E+00 0. -1.
<mgrwt>
<rscale>  2 0.27486920E+02</rscale>
<asrwt>0</asrwt>
<pdfrwt beam="2">  1       21 0.10145372E+00 0.27486920E+02</pdfrwt>
<pdfrwt beam="1">  1       -2 0.66076891E-03 0.27486920E+02</pdfrwt>
<totfact> 0.19681911E+05</totfact>
</mgrwt>
</event>
<event>
 4    1  0.2177230E+006  0.3477056E+02  0.7546771E-02  0.1550647E+00
          2   -1    0    0  502    0 -0.00000000000E+00  0.00000000000E+00  0.53516533635E+03  0.53516533635E+03  0.00000000000E+00 0.  1.
         21   -1    0    0  503  502  0.00000000000E+00 -0.00000000000E+00 -0.34421324549E+01  0.34421324549E+01  0.00000000000E+00 0.  1.
         21    1    1    2  503  501  0.20346848165E+02 -0.28195707462E+02  0.10798169243E+03  0.11344178264E+03  0.00000000000E+00 0.  1.
          2    1    1    2  501    0 -0.20346848165E+02  0.28195707462E+02  0.42374151147E+03  0.42516568616E+03  0.00000000000E+00 0.  1.
<mgrwt>
<rscale>  2 0.34770564E+02</rscale>
<asrwt>0</asrwt>
<pdfrwt beam="2">  1       21 0.52955926E-03 0.34770564E+02</pdfrwt>
<pdfrwt beam="1">  1        2 0.82333063E-01 0.34770564E+02</pdfrwt>
<totfact> 0.57239804E+06</totfact>
</mgrwt>
</event>
<event>
 4    1  0.2177230E+006  0.2209556E+02  0.7546771E-02  0.1706605E+00
          2   -1    0    0  503    0 -0.00000000000E+00  0.00000000000E+00  0.77703649321E+03  0.77703649321E+03  0.00000000000E+00 0.  1.
         21   -1    0    0  501  502  0.00000000000E+00 -0.00000000000E+00 -0.86234051028E+00  0.86234051028E+00  0.00000000000E+00 0.  1.
         21    1    1    2  503  502  0.19372827009E+02 -0.10625779962E+02  0.18546006390E+03  0.18677164915E+03  0.00000000000E+00 0.  1.
          2    1    1    2  501    0 -0.19372827009E+02  0.10625779962E+02  0.59071408880E+03  0.59112718457E+03  0.00000000000E+00 0.  1.
<mgrwt>
<rscale>  2 0.22095557E+02</rscale>
<asrwt>0</asrwt>
<pdfrwt beam="2">  1       21 0.13266839E-03 0.22095557E+02</pdfrwt>
<pdfrwt beam="1">  1        2 0.11954352E+00 0.22095557E+02</pdfrwt>
<totfact> 0.25937707E+07</totfact>
</mgrwt>
</event>
<event>
 4    1  0.2177230E+006  0.4484837E+02  0.7546771E-02  0.1475290E+00
         21   -1    0    0  501  502  0.00000000000E+00  0.00000000000E+00  0.14648646319E+04  0.14648646319E+04  0.00000000000E+00 0. -1.
         -3   -1    0    0    0  501 -0.00000000000E+00 -0.00000000000E+00 -0.13858663468E+02  0.13858663468E+02  0.00000000000E+00 0.  1.
         21    1    1    2  503  502 -0.33316006047E+02 -0.30023651829E+02  0.14272824726E+04  0.14279869161E+04  0.00000000000E+00 0. -1.
         -3    1    1    2    0  503  0.33316006047E+02  0.30023651829E+02  0.23723495834E+02  0.50736379282E+02  0.00000000000E+00 0.  1.
<mgrwt>
<rscale>  2 0.44848366E+02</rscale>
<asrwt>0</asrwt>
<pdfrwt beam="1">  1       21 0.22536367E+00 0.44848366E+02</pdfrwt>
<pdfrwt beam="2">  1       -3 0.21321032E-02 0.44848366E+02</pdfrwt>
<totfact> 0.40770042E+03</totfact>
</mgrwt>
</event>
<event>
 4    1  0.2177230E+006  0.2758327E+02  0.7546771E-02  0.1626449E+00
         21   -1    0    0  501  502  0.00000000000E+00  0.00000000000E+00  0.80911042699E+02  0.80911042699E+02  0.00000000000E+00 0.  1.
          2   -1    0    0  503    0 -0.00000000000E+00 -0.00000000000E+00 -0.17273164008E+03  0.17273164008E+03  0.00000000000E+00 0.  1.
         21    1    1    2  503  502 -0.11151137250E+02  0.25228728483E+02  0.77410711330E+02  0.82178189512E+02  0.00000000000E+00 0.  1.
          2    1    1    2  501    0  0.11151137250E+02 -0.25228728483E+02 -0.16923130871E+03  0.17146449327E+03  0.00000000000E+00 0.  1.
<mgrwt>
<rscale>  2 0.27583267E+02</rscale>
<asrwt>0</asrwt>
<pdfrwt beam="1">  1       21 0.12447853E-01 0.27583267E+02</pdfrwt>
<pdfrwt beam="2">  1        2 0.26574098E-01 0.27583267E+02</pdfrwt>
<totfact> 0.12027756E+05</totfact>
</mgrwt>
</event>
<event>
 4    1  0.2177230E+006  0.2358201E+02  0.7546771E-02  0.1682246E+00
          2   -1    0    0  503    0 -0.00000000000E+00  0.00000000000E+00  0.11142614323E+03  0.11142614323E+03  0.00000000000E+00 0. -1.
         21   -1    0    0  501  502  0.00000000000E+00 -0.00000000000E+00 -0.83610918490E+01  0.83610918490E+01  0.00000000000E+00 0.  1.
         21    1    1    2  503  502 -0.10540118488E+02  0.21095433789E+02  0.13506631760E+02  0.27176102111E+02  0.00000000000E+00 0.  1.
          2    1    1    2  501    0  0.10540118488E+02 -0.21095433789E+02  0.89558419621E+02  0.92611132967E+02  0.00000000000E+00 0. -1.
<mgrwt>
<rscale>  2 0.23582015E+02</rscale>
<asrwt>0</asrwt>
<pdfrwt beam="2">  1       21 0.12863219E-02 0.23582015E+02</pdfrwt>
<pdfrwt beam="1">  1        2 0.17142483E-01 0.23582015E+02</pdfrwt>
<totfact> 0.68325051E+06</totfact>
</mgrwt>
</event>
<event>
 4    1  0.2177230E+006  0.2000574E+02  0.7546771E-02  0.1745214E+00
          4   -1    0    0  502    0 -0.00000000000E+00  0.00000000000E+00  0.18060987445E+02  0.18060987445E+02  0.00000000000E+00 0.  1.
         21   -1    0    0  503  502  0.00000000000E+00 -0.00000000000E+00 -0.31473747313E+03  0.31473747313E+03  0.00000000000E+00 0.  1.
         21    1    1    2  503  501  0.16674708361E+02  0.11053678465E+02 -0.30877268240E+03  0.30942010132E+03  0.00000000000E+00 0.  1.
          4    1    1    2  501    0 -0.16674708361E+02 -0.11053678465E+02  0.12096196712E+02  0.23378359255E+02  0.00000000000E+00 0.  1.
<mgrwt>
<rscale>  2 0.20005742E+02</rscale>
<asrwt>0</asrwt>
<pdfrwt beam="2">  1       21 0.48421148E-01 0.20005742E+02</pdfrwt>
<pdfrwt beam="1">  1        4 0.27786136E-02 0.20005742E+02</pdfrwt>
<totfact> 0.68569223E+04</totfact>
</mgrwt>
</event>
<event>
 4    1  0.2177230E+006  0.2022384E+02  0.7546771E-02  0.1740913E+00
          1   -1    0    0  503    0 -0.00000000000E+00  0.00000000000E+00  0.28210228711E+02  0.28210228711E+02  0.00000000000E+00 0. -1.
         21   -1    0    0  501  502  0.00000000000E+00 -0.00000000000E+00 -0.23257463738E+02  0.23257463738E+02  0.00000000000E+00 0.  1.
         21    1    1    2  503  502 -0.72047029358E+01 -0.18896980034E+02 -0.13316158054E+02  0.24214121172E+02  0.00000000000E+00 0.  1.
          1    1    1    2  501    0  0.72047029358E+01  0.18896980034E+02  0.18268923027E+02  0.27253571277E+02  0.00000000000E+00 0. -1.
<mgrwt>
<rscale>  2 0.20223837E+02</rscale>
<asrwt>0</asrwt>
<pdfrwt beam="2">  1       21 0.35780714E-02 0.20223837E+02</pdfrwt>
<pdfrwt beam="1">  1        1 0.43400352E-02 0.20223837E+02</pdfrwt>
<totfact> 0.62507668E+06</totfact>
</mgrwt>
</event>
<event>
 4    1  0.2177230E+006  0.2022776E+02  0.7546771E-02  0.1740836E+00
         21   -1    0    0  501  502  0.00000000000E+00  0.00000000000E+00  0.18625195332E+03  0.18625195332E+03  0.00000000000E+00 0. -1.
          2   -1    0    0  503    0 -0.00000000000E+00 -0.00000000000E+00 -0.63838543694E+03  0.63838543694E+03  0.00000000000E+00 0.  1.
         21    1    1    2  503  502  0.12628005923E+02  0.15801758240E+02  0.18554190366E+03  0.18664126047E+03  0.00000000000E+00 0. -1.
          2    1    1    2  501    0 -0.12628005923E+02 -0.15801758240E+02 -0.63767538727E+03  0.63799612979E+03  0.00000000000E+00 0.  1.
<mgrwt>
<rscale>  2 0.20227756E+02</rscale>
<asrwt>0</asrwt>
<pdfrwt beam="1">  1       21 0.28654147E-01 0.20227756E+02</pdfrwt>
<pdfrwt beam="2">  1        2 0.98213144E-01 0.20227756E+02</pdfrwt>
<totfact> 0.74759177E+03</totfact>
</mgrwt>
</event>
<event>
 4    1  0.2177230E+006  0.2408511E+02  0.7546771E-02  0.1674501E+00
          2   -1    0    0  503    0 -0.00000000000E+00  0.00000000000E+00  0.66612291482E+03  0.66612291482E+03  0.00000000000E+00 0. -1.
         21   -1    0    0  501  502  0.00000000000E+00 -0.00000000000E+00 -0.94644866088E+00  0.94644866088E+00  0.00000000000E+00 0. -1.
         21    1    1    2  503  502 -0.12351194509E+02 -0.20677054146E+02  0.23832290947E+03  0.23953684842E+03  0.00000000000E+00 0. -1.
          2    1    1    2  501    0  0.12351194509E+02  0.20677054146E+02  0.42685355669E+03  0.42753251506E+03  0.00000000000E+00 0. -1.
<mgrwt>
<rscale>  2 0.24085111E+02</rscale>
<asrwt>0</asrwt>
<pdfrwt beam="2">  1       21 0.14560802E-03 0.24085111E+02</pdfrwt>
<pdfrwt beam="1">  1        2 0.10248007E+00 0.24085111E+02</pdfrwt>
<totfact> 0.27547975E+07</totfact>
</mgrwt>
</event>
<event>
 4    1  0.2177230E+006  0.2059279E+02  0.7546771E-02  0.1733790E+00
          1   -1    0    0  503    0 -0.00000000000E+00  0.00000000000E+00  0.10571547470E+04  0.10571547470E+04  0.00000000000E+00 0. -1.
         21   -1    0    0  501  502  0.00000000000E+00 -0.00000000000E+00 -0.41656291672E+00  0.41656291672E+00  0.00000000000E+00 0. -1.
         21    1    1    2  503  502  0.12947372730E+02  0.16013392009E+02  0.42660977874E+03  0.42710650486E+03  0.00000000000E+00 0. -1.
          1    1    1    2  501    0 -0.12947372730E+02 -0.16013392009E+02  0.63012840536E+03  0.63046480506E+03  0.00000000000E+00 0. -1.
<mgrwt>
<rscale>  2 0.20592794E+02</rscale>
<asrwt>0</asrwt>
<pdfrwt beam="2">  1       21 0.64087449E-04 0.20592794E+02</pdfrwt>
<pdfrwt beam="1">  1        1 0.16263704E+00 0.20592794E+02</pdfrwt>
<totfact> 0.27016279E+07</totfact>
</mgrwt>
</event>
<event>
 4    1  0.2177230E+006  0.8424374E+02  0.7546771E-02  0.1317422E+00
         21   -1    0    0  503  502  0.00000000000E+00  0.00000000000E+00  0.12869884742E+03  0.12869884742E+03  0.00000000000E+00 0.  1.
         -3   -1    0    0    0  501 -0.00000000000E+00 -0.00000000000E+00 -0.15685297668E+03  0.15685297668E+03  0.00000000000E+00 0. -1.
         21    1    1    2  503  501  0.46104467805E+02 -0.70508056343E+02  0.10089373733E+03  0.13144030658E+03  0.00000000000E+00 0.  1.
         -3    1    1    2    0  502 -0.46104467805E+02  0.70508056343E+02 -0.12904786659E+03  0.15411151752E+03  0.00000000000E+00 0. -1.
<mgrwt>
<rscale>  2 0.84243741E+02</rscale>
<asrwt>0</asrwt>
<pdfrwt beam="1">  1       21 0.19799823E-01 0.84243741E+02</pdfrwt>
<pdfrwt beam="2">  1       -3 0.24131227E-01 0.84243741E+02</pdfrwt>
<totfact> 0.17518025E+04</totfact>
</mgrwt>
</event>
<event>
 4    1  0.2177230E+006  0.2589791E+02  0.7546771E-02  0.1648430E+00
          2   -1    0    0  503    0 -0.00000000000E+00  0.00000000000E+00  0.17805864934E+04  0.17805864934E+04  0.00000000000E+00 0. -1.
         21   -1    0    0  501  502  0.00000000000E+00 -0.00000000000E+00 -0.16297464713E+02  0.16297464713E+02  0.00000000000E+00 0. -1.
         21    1    1    2  503  502  0.25398550444E+02  0.50611851653E+01 -0.58541604892E+01  0.26551330569E+02  0.00000000000E+00 0. -1.
          2    1    1    2  501    0 -0.25398550444E+02 -0.50611851653E+01  0.17701431892E+04  0.17703326276E+04  0.00000000000E+00 0. -1.
<mgrwt>
<rscale>  2 0.25897914E+02</rscale>
<asrwt>0</asrwt>
<pdfrwt beam="2">  1       21 0.25073037E-02 0.25897914E+02</pdfrwt>
<pdfrwt beam="1">  1        2 0.27393623E+00 0.25897914E+02</pdfrwt>
<totfact> 0.10459377E+05</totfact>
</mgrwt>
</event>
<event>
 4    1  0.2177230E+006  0.5856091E+02  0.7546771E-02  0.1403972E+00
         21   -1    0    0  501  502  0.00000000000E+00  0.00000000000E+00  0.27871833950E+02  0.27871833950E+02  0.00000000000E+00 0.  1.
          1   -1    0    0  503    0 -0.00000000000E+00 -0.00000000000E+00 -0.48332705383E+03  0.48332705383E+03  0.00000000000E+00 0. -1.
         21    1    1    2  503  502  0.53854347489E+02 -0.23001949539E+02 -0.70475809793E+01  0.58983462290E+02  0.00000000000E+00 0.  1.
          1    1    1    2  501    0 -0.53854347489E+02  0.23001949539E+02 -0.44840763890E+03  0.45221542549E+03  0.00000000000E+00 0. -1.
<mgrwt>
<rscale>  2 0.58560912E+02</rscale>
<asrwt>0</asrwt>
<pdfrwt beam="1">  1       21 0.42879742E-02 0.58560912E+02</pdfrwt>
<pdfrwt beam="2">  1        1 0.74358012E-01 0.58560912E+02</pdfrwt>
<totfact> 0.17183178E+05</totfact>
</mgrwt>
</event>
<event>
 4    1  0.2177230E+006  0.3140525E+02  0.7546771E-02  0.1583055E+00
         21   -1    0    0  503  502  0.00000000000E+00  0.00000000000E+00  0.23500786352E+01  0.23500786352E+01  0.00000000000E+00 0.  1.
          2   -1    0    0  502    0 -0.00000000000E+00 -0.00000000000E+00 -0.67960980141E+03  0.67960980141E+03  0.00000000000E+00 0.  1.
         21    1    1    2  503  501 -0.21431391719E+02 -0.22956160297E+02 -0.12775543879E+03  0.13155889171E+03  0.00000000000E+00 0.  1.
          2    1    1    2  501    0  0.21431391719E+02  0.22956160297E+02 -0.54950428398E+03  0.55040098834E+03  0.00000000000E+00 0.  1.
<mgrwt>
<rscale>  2 0.31405252E+02</rscale>
<asrwt>0</asrwt>
<pdfrwt beam="1">  1       21 0.36155075E-03 0.31405252E+02</pdfrwt>
<pdfrwt beam="2">  1        2 0.10455530E+00 0.31405252E+02</pdfrwt>
<totfact> 0.76582658E+06</totfact>
</mgrwt>
</event>
<event>
 4    1  0.2177230E+006  0.5581007E+02  0.7546771E-02  0.1416306E+00
         21   -1    0    0  503  502  0.00000000000E+00  0.00000000000E+00  0.38448747084E+02  0.38448747084E+02  0.00000000000E+00 0.  1.
          4   -1    0    0  502    0 -0.00000000000E+00 -0.00000000000E+00 -0.32094850802E+03  0.32094850802E+03  0.00000000000E+00 0. -1.
         21    1    1    2  503  501 -0.49571062197E+02  0.25641241692E+02  0.14123401380E+02  0.57569383785E+02  0.00000000000E+00 0.  1.
          4    1    1    2  501    0  0.49571062197E+02 -0.25641241692E+02 -0.29662316232E+03  0.30182787132E+03  0.00000000000E+00 0. -1.
<mgrwt>
<rscale>  2 0.55810066E+02</rscale>
<asrwt>0</asrwt>
<pdfrwt beam="1">  1       21 0.59151918E-02 0.55810066E+02</pdfrwt>
<pdfrwt beam="2">  1        4 0.49376694E-01 0.55810066E+02</pdfrwt>
<totfact> 0.28638895E+04</totfact>
</mgrwt>
</event>
<event>
 4    1  0.2177230E+006  0.2092857E+02  0.7546771E-02  0.1727469E+00
         21   -1    0    0  503  502  0.00000000000E+00  0.00000000000E+00  0.32756827001E+02  0.32756827001E+02  0.00000000000E+00 0. -1.
          1   -1    0    0  502    0 -0.00000000000E+00 -0.00000000000E+00 -0.60593490003E+02  0.60593490003E+02  0.00000000000E+00 0. -1.
         21    1    1    2  503  501  0.15576290653E+02  0.13977997081E+02  0.27286233761E+02  0.34388134374E+02  0.00000000000E+00 0. -1.
          1    1    1    2  501    0 -0.15576290653E+02 -0.13977997081E+02 -0.55122896763E+02  0.58962182629E+02  0.00000000000E+00 0. -1.
<mgrwt>
<rscale>  2 0.20928575E+02</rscale>
<asrwt>0</asrwt>
<pdfrwt beam="1">  1       21 0.50395119E-02 0.20928575E+02</pdfrwt>
<pdfrwt beam="2">  1        1 0.93220753E-02 0.20928575E+02</pdfrwt>
<totfact> 0.14006171E+06</totfact>
</mgrwt>
</event>
<event>
 4    1  0.2177230E+006  0.2335916E+02  0.7546771E-02  0.1685753E+00
         -3   -1    0    0    0  501 -0.00000000000E+00  0.00000000000E+00  0.18807659984E+03  0.18807659984E+03  0.00000000000E+00 0. -1.
         21   -1    0    0  503  502  0.00000000000E+00 -0.00000000000E+00 -0.16423463388E+02  0.16423463388E+02  0.00000000000E+00 0.  1.
         21    1    1    2  503  501 -0.12207688684E+02  0.19915394018E+02 -0.69536817379E+01  0.24372202847E+02  0.00000000000E+00 0.  1.
         -3    1    1    2    0  502  0.12207688684E+02 -0.19915394018E+02  0.17860681819E+03  0.18012786039E+03  0.00000000000E+00 0. -1.
<mgrwt>
<rscale>  2 0.23359165E+02</rscale>
<asrwt>0</asrwt>
<pdfrwt beam="2">  1       21 0.25266868E-02 0.23359165E+02</pdfrwt>
<pdfrwt beam="1">  1       -3 0.28934860E-01 0.23359165E+02</pdfrwt>
<totfact> 0.30869906E+05</totfact>
</mgrwt>
</event>
<event>
 4    1  0.2177230E+006  0.2245016E+02  0.7546771E-02  0.1700581E+00
         21   -1    0    0  503  502  0.00000000000E+00  0.00000000000E+00  0.28473155090E+03  0.28473155090E+03  0.00000000000E+00 0.  1.
          3   -1    0    0  502    0 -0.00000000000E+00 -0.00000000000E+00 -0.12106492544E+02  0.12106492544E+02  0.00000000000E+00 0. -1.
         21    1    1    2  503  501  0.11042632912E+02  0.19546605247E+02  0.27345262066E+03  0.27437263943E+03  0.00000000000E+00 0.  1.
          3    1    1    2  501    0 -0.11042632912E+02 -0.19546605247E+02 -0.82756230656E+00  0.22465404018E+02  0.00000000000E+00 0. -1.
<mgrwt>
<rscale>  2 0.22450156E+02</rscale>
<asrwt>0</asrwt>
<pdfrwt beam="1">  1       21 0.43804849E-01 0.22450156E+02</pdfrwt>
<pdfrwt beam="2">  1        3 0.18625375E-02 0.22450156E+02</pdfrwt>
<totfact> 0.18158278E+05</totfact>
</mgrwt>
</event>
<event>
 4    1  0.2177230E+006  0.4401999E+02  0.7546771E-02  0.1480554E+00
         21   -1    0    0  501  502  0.00000000000E+00  0.00000000000E+00  0.35631278806E+01  0.35631278806E+01  0.00000000000E+00 0.  1.
         -1   -1    0    0    0  501 -0.00000000000E+00 -0.00000000000E+00 -0.81134430723E+03  0.81134430723E+03  0.00000000000E+00 0.  1.
         21    1    1    2  503  502  0.29936081079E+02 -0.32273687890E+02 -0.16992945599E+03  0.17553854247E+03  0.00000000000E+00 0.  1.
         -1    1    1    2    0  503 -0.29936081079E+02  0.32273687890E+02 -0.63785172336E+03  0.63936889264E+03  0.00000000000E+00 0.  1.
<mgrwt>
<rscale>  2 0.44019994E+02</rscale>
<asrwt>0</asrwt>
<pdfrwt beam="1">  1       21 0.54817399E-03 0.44019994E+02</pdfrwt>
<pdfrwt beam="2">  1       -1 0.12482209E+00 0.44019994E+02</pdfrwt>
<totfact> 0.47206464E+05</totfact>
</mgrwt>
</event>
<event>
 4    1  0.2177230E+006  0.2447114E+02  0.7546771E-02  0.1668716E+00
          2   -1    0    0  502    0 -0.00000000000E+00  0.00000000000E+00  0.72827716093E+03  0.72827716093E+03  0.00000000000E+00 0.  1.
         21   -1    0    0  503  502  0.00000000000E+00 -0.00000000000E+00 -0.90856079748E+00  0.90856079748E+00  0.00000000000E+00 0.  1.
         21    1    1    2  503  501 -0.67918475232E+01 -0.23509733374E+02  0.25132055478E+03  0.25250912460E+03  0.00000000000E+00 0.  1.
          2    1    1    2  501    0  0.67918475232E+01  0.23509733374E+02  0.47604804536E+03  0.47667659713E+03  0.00000000000E+00 0.  1.
<mgrwt>
<rscale>  2 0.24471141E+02</rscale>
<asrwt>0</asrwt>
<pdfrwt beam="2">  1       21 0.13977917E-03 0.24471141E+02</pdfrwt>
<pdfrwt beam="1">  1        2 0.11204217E+00 0.24471141E+02</pdfrwt>
<totfact> 0.26634324E+07</totfact>
</mgrwt>
</event>
<event>
 4    1  0.2177230E+006  0.2654946E+02  0.7546771E-02  0.1639695E+00
          1   -1    0    0  502    0 -0.00000000000E+00  0.00000000000E+00  0.15260625321E+02  0.15260625321E+02  0.00000000000E+00 0. -1.
         21   -1    0    0  503  502  0.00000000000E+00 -0.00000000000E+00 -0.66342341900E+02  0.66342341900E+02  0.00000000000E+00 0. -1.
         21    1    1    2  503  501 -0.24050703208E+02  0.11244445801E+02 -0.48028995522E+02  0.54878577761E+02  0.00000000000E+00 0. -1.
          1    1    1    2  501    0  0.24050703208E+02 -0.11244445801E+02 -0.30527210561E+01  0.26724389460E+02  0.00000000000E+00 0. -1.
<mgrwt>
<rscale>  2 0.26549461E+02</rscale>
<asrwt>0</asrwt>
<pdfrwt beam="2">  1       21 0.10206514E-01 0.26549461E+02</pdfrwt>
<pdfrwt beam="1">  1        1 0.23477885E-02 0.26549461E+02</pdfrwt>
<totfact> 0.27727051E+06</totfact>
</mgrwt>
</event>
<event>
 4    1  0.2177230E+006  0.2522358E+02  0.7546771E-02  0.1657811E+00
         21   -1    0    0  503  502  0.00000000000E+00  0.00000000000E+00  0.38881235014E+01  0.38881235014E+01  0.00000000000E+00 0.  1.
          2   -1    0    0  502    0 -0.00000000000E+00 -0.00000000000E+00 -0.98839466826E+03  0.98839466826E+03  0.00000000000E+00 0. -1.
         21    1    1    2  503  501 -0.24834603534E+02 -0.44126469387E+01 -0.39038295886E+02  0.46478140361E+02  0.00000000000E+00 0.  1.
          2    1    1    2  501    0  0.24834603534E+02  0.44126469387E+01 -0.94546824887E+03  0.94580465140E+03  0.00000000000E+00 0. -1.
<mgrwt>
<rscale>  2 0.25223580E+02</rscale>
<asrwt>0</asrwt>
<pdfrwt beam="1">  1       21 0.59817298E-03 0.25223580E+02</pdfrwt>
<pdfrwt beam="2">  1        2 0.15206068E+00 0.25223580E+02</pdfrwt>
<totfact> 0.22478687E+06</totfact>
</mgrwt>
</event>
<event>
 4    1  0.2177230E+006  0.2070686E+02  0.7546771E-02  0.1731626E+00
         -1   -1    0    0    0  501 -0.00000000000E+00  0.00000000000E+00  0.52276269905E+03  0.52276269905E+03  0.00000000000E+00 0.  1.
         21   -1    0    0  503  502  0.00000000000E+00 -0.00000000000E+00 -0.12288934774E+01  0.12288934774E+01  0.00000000000E+00 0.  1.
         21    1    1    2  503  501  0.20695314308E+02  0.69148050507E+00  0.10967827601E+03  0.11161585196E+03  0.00000000000E+00 0.  1.
         -1    1    1    2    0  502 -0.20695314308E+02 -0.69148050507E+00  0.41185552957E+03  0.41237574057E+03  0.00000000000E+00 0.  1.
<mgrwt>
<rscale>  2 0.20706863E+02</rscale>
<asrwt>0</asrwt>
<pdfrwt beam="2">  1       21 0.18906095E-03 0.20706863E+02</pdfrwt>
<pdfrwt beam="1">  1       -1 0.80424853E-01 0.20706863E+02</pdfrwt>
<totfact> 0.48794418E+06</totfact>
</mgrwt>
</event>
<event>
 4    1  0.2177230E+006  0.2178668E+02  0.7546771E-02  0.1711968E+00
         21   -1    0    0  503  502  0.00000000000E+00  0.00000000000E+00  0.62025181746E+00  0.62025181746E+00  0.00000000000E+00 0. -1.
         -4   -1    0    0    0  501 -0.00000000000E+00 -0.00000000000E+00 -0.92480655778E+03  0.92480655778E+03  0.00000000000E+00 0. -1.
         21    1    1    2  503  501  0.13072022211E+02  0.17429336490E+02 -0.26990881267E+03  0.27078668116E+03  0.00000000000E+00 0. -1.
         -4    1    1    2    0  502 -0.13072022211E+02 -0.17429336490E+02 -0.65427749329E+03  0.65464012844E+03  0.00000000000E+00 0. -1.
<mgrwt>
<rscale>  2 0.21786683E+02</rscale>
<asrwt>0</asrwt>
<pdfrwt beam="1">  1       21 0.95423922E-04 0.21786683E+02</pdfrwt>
<pdfrwt beam="2">  1       -4 0.14227709E+00 0.21786683E+02</pdfrwt>
<totfact> 0.11557058E+06</totfact>
</mgrwt>
</event>
<event>
 4    1  0.2177230E+006  0.2055460E+02  0.7546771E-02  0.1734519E+00
         21   -1    0    0  503  502  0.00000000000E+00  0.00000000000E+00  0.27638514283E+03  0.27638514283E+03  0.00000000000E+00 0.  1.
          2   -1    0    0  502    0 -0.00000000000E+00 -0.00000000000E+00 -0.25071204739E+01  0.25071204739E+01  0.00000000000E+00 0.  1.
         21    1    1    2  503  501 -0.12376417778E+02  0.16410840438E+02  0.22405473392E+03  0.22499558927E+03  0.00000000000E+00 0.  1.
          2    1    1    2  501    0  0.12376417778E+02 -0.16410840438E+02  0.49823288439E+02  0.53896674033E+02  0.00000000000E+00 0.  1.
<mgrwt>
<rscale>  2 0.20554596E+02</rscale>
<asrwt>0</asrwt>
<pdfrwt beam="1">  1       21 0.42520767E-01 0.20554596E+02</pdfrwt>
<pdfrwt beam="2">  1        2 0.38571106E-03 0.20554596E+02</pdfrwt>
<totfact> 0.23000463E+06</totfact>
</mgrwt>
</event>
<event>
 4    1  0.2177230E+006  0.2797399E+02  0.7546771E-02  0.1621627E+00
         21   -1    0    0  501  502  0.00000000000E+00  0.00000000000E+00  0.11805938894E+01  0.11805938894E+01  0.00000000000E+00 0.  1.
          1   -1    0    0  503    0 -0.00000000000E+00 -0.00000000000E+00 -0.13370765671E+04  0.13370765671E+04  0.00000000000E+00 0.  1.
         21    1    1    2  503  502 -0.25090792635E+02  0.12369169873E+02 -0.19279029841E+03  0.19480924876E+03  0.00000000000E+00 0.  1.
          1    1    1    2  501    0  0.25090792635E+02 -0.12369169873E+02 -0.11431056748E+04  0.11434479122E+04  0.00000000000E+00 0.  1.
<mgrwt>
<rscale>  2 0.27973992E+02</rscale>
<asrwt>0</asrwt>
<pdfrwt beam="1">  1       21 0.18163039E-03 0.27973992E+02</pdfrwt>
<pdfrwt beam="2">  1        1 0.20570345E+00 0.27973992E+02</pdfrwt>
<totfact> 0.43669241E+06</totfact>
</mgrwt>
</event>
<event>
 4    1  0.2177230E+006  0.2053950E+02  0.7546771E-02  0.1734807E+00
         -1   -1    0    0    0  501 -0.00000000000E+00  0.00000000000E+00  0.30163120181E+02  0.30163120181E+02  0.00000000000E+00 0.  1.
         21   -1    0    0  503  502  0.00000000000E+00 -0.00000000000E+00 -0.28668566830E+02  0.28668566830E+02  0.00000000000E+00 0.  1.
         21    1    1    2  503  501  0.64540220071E+01  0.19499150132E+02 -0.20303807849E+02  0.28881064196E+02  0.00000000000E+00 0.  1.
         -1    1    1    2    0  502 -0.64540220071E+01 -0.19499150132E+02  0.21798361200E+02  0.29950622814E+02  0.00000000000E+00 0.  1.
<mgrwt>
<rscale>  2 0.20539505E+02</rscale>
<asrwt>0</asrwt>
<pdfrwt beam="2">  1       21 0.44105487E-02 0.20539505E+02</pdfrwt>
<pdfrwt beam="1">  1       -1 0.46404800E-02 0.20539505E+02</pdfrwt>
<totfact> 0.36820463E+06</totfact>
</mgrwt>
</event>
<event>
 4    1  0.2177230E+006  0.2227356E+02  0.7546771E-02  0.1703563E+00
         21   -1    0    0  501  502  0.00000000000E+00  0.00000000000E+00  0.89933007668E+02  0.89933007668E+02  0.00000000000E+00 0.  1.
          2   -1    0    0  503    0 -0.00000000000E+00 -0.00000000000E+00 -0.42058927862E+03  0.42058927862E+03  0.00000000000E+00 0.  1.
         21    1    1    2  503  502 -0.13367493764E+02 -0.17816333519E+02  0.88253477088E+02  0.91020809970E+02  0.00000000000E+00 0.  1.
          2    1    1    2  501    0  0.13367493764E+02  0.17816333519E+02 -0.41890974804E+03  0.41950147632E+03  0.00000000000E+00 0.  1.
<mgrwt>
<rscale>  2 0.22273563E+02</rscale>
<asrwt>0</asrwt>
<pdfrwt beam="1">  1       21 0.13835847E-01 0.22273563E+02</pdfrwt>
<pdfrwt beam="2">  1        2 0.64706043E-01 0.22273563E+02</pdfrwt>
<totfact> 0.40610883E+04</totfact>
</mgrwt>
</event>
<event>
 4    1  0.2177230E+006  0.4061720E+02  0.7546771E-02  0.1503718E+00
         21   -1    0    0  501  502  0.00000000000E+00  0.00000000000E+00  0.22744898272E+02  0.22744898272E+02  0.00000000000E+00 0.  1.
          1   -1    0    0  503    0 -0.00000000000E+00 -0.00000000000E+00 -0.19371540517E+03  0.19371540517E+03  0.00000000000E+00 0. -1.
         21    1    1    2  503  502  0.37268475606E+02  0.16149850509E+02  0.11713334164E+00  0.40617369014E+02  0.00000000000E+00 0.  1.
          1    1    1    2  501    0 -0.37268475606E+02 -0.16149850509E+02 -0.17108764024E+03  0.17584293442E+03  0.00000000000E+00 0. -1.
<mgrwt>
<rscale>  2 0.40617200E+02</rscale>
<asrwt>0</asrwt>
<pdfrwt beam="1">  1       21 0.34992151E-02 0.40617200E+02</pdfrwt>
<pdfrwt beam="2">  1        1 0.29802370E-01 0.40617200E+02</pdfrwt>
<totfact> 0.68946242E+05</totfact>
</mgrwt>
</event>
<event>
 4    1  0.2177230E+006  0.2325975E+02  0.7546771E-02  0.1687334E+00
          3   -1    0    0  502    0 -0.00000000000E+00  0.00000000000E+00  0.22986757310E+02  0.22986757310E+02  0.00000000000E+00 0. -1.
         21   -1    0    0  503  502  0.00000000000E+00 -0.00000000000E+00 -0.59312468895E+02  0.59312468895E+02  0.00000000000E+00 0. -1.
         21    1    1    2  503  501 -0.21172556463E+02 -0.96300914997E+01 -0.50121741381E+02  0.55255812079E+02  0.00000000000E+00 0. -1.
          3    1    1    2  501    0  0.21172556463E+02  0.96300914997E+01  0.13796029795E+02  0.27043414126E+02  0.00000000000E+00 0. -1.
<mgrwt>
<rscale>  2 0.23259747E+02</rscale>
<asrwt>0</asrwt>
<pdfrwt beam="2">  1       21 0.91249953E-02 0.23259747E+02</pdfrwt>
<pdfrwt beam="1">  1        3 0.35364242E-02 0.23259747E+02</pdfrwt>
<totfact> 0.11252551E+06</totfact>
</mgrwt>
</event>
<event>
 4    1  0.2177230E+006  0.2771768E+02  0.7546771E-02  0.1624779E+00
          2   -1    0    0  502    0 -0.00000000000E+00  0.00000000000E+00  0.28872862788E+03  0.28872862788E+03  0.00000000000E+00 0. -1.
         21   -1    0    0  503  502  0.00000000000E+00 -0.00000000000E+00 -0.44366292699E+01  0.44366292699E+01  0.00000000000E+00 0. -1.
         21    1    1    2  503  501  0.20718995330E+02  0.18411765491E+02  0.49410128314E+02  0.56653602321E+02  0.00000000000E+00 0. -1.
          2    1    1    2  501    0 -0.20718995330E+02 -0.18411765491E+02  0.23488187030E+03  0.23651165483E+03  0.00000000000E+00 0. -1.
<mgrwt>
<rscale>  2 0.27717682E+02</rscale>
<asrwt>0</asrwt>
<pdfrwt beam="2">  1       21 0.68255857E-03 0.27717682E+02</pdfrwt>
<pdfrwt beam="1">  1        2 0.44419774E-01 0.27717682E+02</pdfrwt>
<totfact> 0.69356530E+06</totfact>
</mgrwt>
</event>
<event>
 4    1  0.2177230E+006  0.3103761E+02  0.7546771E-02  0.1586895E+00
         -4   -1    0    0    0  501 -0.00000000000E+00  0.00000000000E+00  0.15240734903E+04  0.15240734903E+04  0.00000000000E+00 0.  1.
         21   -1    0    0  503  502  0.00000000000E+00 -0.00000000000E+00 -0.25538509227E+01  0.25538509227E+01  0.00000000000E+00 0. -1.
         21    1    1    2  503  501  0.22170540285E+02  0.21720968533E+02  0.98609941071E+02  0.10337917493E+03  0.00000000000E+00 0. -1.
         -4    1    1    2    0  502 -0.22170540285E+02 -0.21720968533E+02  0.14229096983E+04  0.14232481663E+04  0.00000000000E+00 0.  1.
<mgrwt>
<rscale>  2 0.31037612E+02</rscale>
<asrwt>0</asrwt>
<pdfrwt beam="2">  1       21 0.39290136E-03 0.31037612E+02</pdfrwt>
<pdfrwt beam="1">  1       -4 0.23447212E+00 0.31037612E+02</pdfrwt>
<totfact> 0.46372075E+04</totfact>
</mgrwt>
</event>
<event>
 4    1  0.2177230E+006  0.2385918E+02  0.7546771E-02  0.1677950E+00
          1   -1    0    0  503    0 -0.00000000000E+00  0.00000000000E+00  0.14088549520E+02  0.14088549520E+02  0.00000000000E+00 0.  1.
         21   -1    0    0  501  502  0.00000000000E+00 -0.00000000000E+00 -0.82830591587E+02  0.82830591587E+02  0.00000000000E+00 0.  1.
         21    1    1    2  503  502 -0.21422318578E+02  0.10504504562E+02 -0.69052178993E+02  0.73057948048E+02  0.00000000000E+00 0.  1.
          1    1    1    2  501    0  0.21422318578E+02 -0.10504504562E+02  0.31013692561E+00  0.23861193060E+02  0.00000000000E+00 0.  1.
<mgrwt>
<rscale>  2 0.23859177E+02</rscale>
<asrwt>0</asrwt>
<pdfrwt beam="2">  1       21 0.12743168E-01 0.23859177E+02</pdfrwt>
<pdfrwt beam="1">  1        1 0.21674691E-02 0.23859177E+02</pdfrwt>
<totfact> 0.20684404E+06</totfact>
</mgrwt>
</event>
<event>
 4    1  0.2177230E+006  0.1113611E+03  0.7546771E-02  0.1258070E+00
          2   -1    0    0  502    0 -0.00000000000E+00  0.00000000000E+00  0.73758688940E+03  0.73758688940E+03  0.00000000000E+00 0. -1.
         21   -1    0    0  503  502  0.00000000000E+00 -0.00000000000E+00 -0.27534036664E+02  0.27534036664E+02  0.00000000000E+00 0. -1.
         21    1    1    2  503  501 -0.10055828028E+03  0.47847021185E+02  0.11631320144E+03  0.16102815281E+03  0.00000000000E+00 0. -1.
          2    1    1    2  501    0  0.10055828028E+03 -0.47847021185E+02  0.59373965130E+03  0.60409277325E+03  0.00000000000E+00 0. -1.
<mgrwt>
<rscale>  2 0.11136115E+03</rscale>
<asrwt>0</asrwt>
<pdfrwt beam="2">  1       21 0.42360062E-02 0.11136115E+03</pdfrwt>
<pdfrwt beam="1">  1        2 0.11347489E+00 0.11136115E+03</pdfrwt>
<totfact> 0.17407576E+05</totfact>
</mgrwt>
</event>
<event>
 4    1  0.2177230E+006  0.4096283E+02  0.7546771E-02  0.1501243E+00
         -2   -1    0    0    0  501 -0.00000000000E+00  0.00000000000E+00  0.11917405268E+03  0.11917405268E+03  0.00000000000E+00 0. -1.
         21   -1    0    0  503  502  0.00000000000E+00 -0.00000000000E+00 -0.20877117023E+02  0.20877117023E+02  0.00000000000E+00 0. -1.
         21    1    1    2  503  501 -0.34244587384E+02  0.22478033408E+02  0.91918804652E+01  0.41981477076E+02  0.00000000000E+00 0. -1.
         -2    1    1    2    0  502  0.34244587384E+02 -0.22478033408E+02  0.89105055189E+02  0.98069692623E+02  0.00000000000E+00 0. -1.
<mgrwt>
<rscale>  2 0.40962834E+02</rscale>
<asrwt>0</asrwt>
<pdfrwt beam="2">  1       21 0.32118642E-02 0.40962834E+02</pdfrwt>
<pdfrwt beam="1">  1       -2 0.18334469E-01 0.40962834E+02</pdfrwt>
<totfact> 0.89156732E+05</totfact>
</mgrwt>
</event>
<event>
 4    1  0.2177230E+006  0.2838158E+02  0.7546771E-02  0.1616699E+00
         21   -1    0    0  501  502  0.00000000000E+00  0.00000000000E+00  0.36339769327E+02  0.36339769327E+02  0.00000000000E+00 0.  1.
          1   -1    0    0  503    0 -0.00000000000E+00 -0.00000000000E+00 -0.22659020706E+02  0.22659020706E+02  0.00000000000E+00 0.  1.
         21    1    1    2  503  502 -0.21634048269E+02  0.18370684673E+02  0.24898358135E+01  0.28490584098E+02  0.00000000000E+00 0.  1.
          1    1    1    2  501    0  0.21634048269E+02 -0.18370684673E+02  0.11190912807E+02  0.30508205935E+02  0.00000000000E+00 0.  1.
<mgrwt>
<rscale>  2 0.28381580E+02</rscale>
<asrwt>0</asrwt>
<pdfrwt beam="1">  1       21 0.55907338E-02 0.28381580E+02</pdfrwt>
<pdfrwt beam="2">  1        1 0.34860032E-02 0.28381580E+02</pdfrwt>
<totfact> 0.45002793E+06</totfact>
</mgrwt>
</event>
<event>
 4    1  0.2177230E+006  0.2390956E+02  0.7546771E-02  0.1677177E+00
          2   -1    0    0  503    0 -0.00000000000E+00  0.00000000000E+00  0.27068625526E+02  0.27068625526E+02  0.00000000000E+00 0.  1.
         21   -1    0    0  501  502  0.00000000000E+00 -0.00000000000E+00 -0.71113310295E+02  0.71113310295E+02  0.00000000000E+00 0.  1.
         21    1    1    2  503  502 -0.23533116445E+02  0.42260419329E+01 -0.63183320296E+02  0.67555895107E+02  0.00000000000E+00 0.  1.
          2    1    1    2  501    0  0.23533116445E+02 -0.42260419329E+01  0.19138635527E+02  0.30626040715E+02  0.00000000000E+00 0.  1.
<mgrwt>
<rscale>  2 0.23909559E+02</rscale>
<asrwt>0</asrwt>
<pdfrwt beam="2">  1       21 0.10940509E-01 0.23909559E+02</pdfrwt>
<pdfrwt beam="1">  1        2 0.41644040E-02 0.23909559E+02</pdfrwt>
<totfact> 0.12186906E+06</totfact>
</mgrwt>
</event>
<event>
 4    1  0.2177230E+006  0.3459120E+02  0.7546771E-02  0.1552261E+00
         21   -1    0    0  503  502  0.00000000000E+00  0.00000000000E+00  0.16596575300E+01  0.16596575300E+01  0.00000000000E+00 0. -1.
          1   -1    0    0  502    0 -0.00000000000E+00 -0.00000000000E+00 -0.13960424531E+04  0.13960424531E+04  0.00000000000E+00 0.  1.
         21    1    1    2  503  501  0.16613620479E+02 -0.30340375753E+02 -0.21121751583E+03  0.21403128225E+03  0.00000000000E+00 0. -1.
          1    1    1    2  501    0 -0.16613620479E+02  0.30340375753E+02 -0.11831652798E+04  0.11836708284E+04  0.00000000000E+00 0.  1.
<mgrwt>
<rscale>  2 0.34591195E+02</rscale>
<asrwt>0</asrwt>
<pdfrwt beam="1">  1       21 0.25533302E-03 0.34591195E+02</pdfrwt>
<pdfrwt beam="2">  1        1 0.21477485E+00 0.34591195E+02</pdfrwt>
<totfact> 0.25302094E+06</totfact>
</mgrwt>
</event>
<event>
 4    1  0.2177230E+006  0.2650692E+02  0.7546771E-02  0.1640255E+00
         21   -1    0    0  501  502  0.00000000000E+00  0.00000000000E+00  0.50466351654E+03  0.50466351654E+03  0.00000000000E+00 0.  1.
          1   -1    0    0  503    0 -0.00000000000E+00 -0.00000000000E+00 -0.36899038062E+03  0.36899038062E+03  0.00000000000E+00 0. -1.
         21    1    1    2  503  502 -0.48568315004E+01 -0.26058163692E+02  0.50383863575E+03  0.50453541757E+03  0.00000000000E+00 0.  1.
          1    1    1    2  501    0  0.48568315004E+01  0.26058163692E+02 -0.36816549983E+03  0.36911847958E+03  0.00000000000E+00 0. -1.
<mgrwt>
<rscale>  2 0.26506918E+02</rscale>
<asrwt>0</asrwt>
<pdfrwt beam="1">  1       21 0.77640541E-01 0.26506918E+02</pdfrwt>
<pdfrwt beam="2">  1        1 0.56767751E-01 0.26506918E+02</pdfrwt>
<totfact> 0.12916380E+03</totfact>
</mgrwt>
</event>
<event>
 4    1  0.2177230E+006  0.2897412E+02  0.7546771E-02  0.1609713E+00
         21   -1    0    0  501  502  0.00000000000E+00  0.00000000000E+00  0.32643010652E+00  0.32643010652E+00  0.00000000000E+00 0. -1.
          2   -1    0    0  503    0 -0.00000000000E+00 -0.00000000000E+00 -0.26130185238E+04  0.26130185238E+04  0.00000000000E+00 0. -1.
         21    1    1    2  503  502  0.28869388319E+02  0.24613518106E+01 -0.11421535728E+04  0.11425210212E+04  0.00000000000E+00 0. -1.
          2    1    1    2  501    0 -0.28869388319E+02 -0.24613518106E+01 -0.14705385209E+04  0.14708239328E+04  0.00000000000E+00 0. -1.
<mgrwt>
<rscale>  2 0.28974124E+02</rscale>
<asrwt>0</asrwt>
<pdfrwt beam="1">  1       21 0.50218461E-04 0.28974124E+02</pdfrwt>
<pdfrwt beam="2">  1        2 0.40201530E+00 0.28974124E+02</pdfrwt>
<totfact> 0.13526916E+07</totfact>
</mgrwt>
</event>
<event>
 4    1  0.2177230E+006  0.2581171E+02  0.7546771E-02  0.1649609E+00
         -1   -1    0    0    0  501 -0.00000000000E+00  0.00000000000E+00  0.13826488669E+04  0.13826488669E+04  0.00000000000E+00 0. -1.
         21   -1    0    0  501  502  0.00000000000E+00 -0.00000000000E+00 -0.32271167431E+01  0.32271167431E+01  0.00000000000E+00 0.  1.
         21    1    1    2  503  502  0.69836563171E+01  0.24849002292E+02  0.50596699422E+02  0.56800267278E+02  0.00000000000E+00 0.  1.
         -1    1    1    2    0  503 -0.69836563171E+01 -0.24849002292E+02  0.13288250507E+04  0.13290757164E+04  0.00000000000E+00 0. -1.
<mgrwt>
<rscale>  2 0.25811710E+02</rscale>
<asrwt>0</asrwt>
<pdfrwt beam="2">  1       21 0.49648060E-03 0.25811710E+02</pdfrwt>
<pdfrwt beam="1">  1       -1 0.21271474E+00 0.25811710E+02</pdfrwt>
<totfact> 0.12549439E+05</totfact>
</mgrwt>
</event>
<event>
 4    1  0.2177230E+006  0.2329077E+02  0.7546771E-02  0.1686840E+00
          3   -1    0    0  503    0 -0.00000000000E+00  0.00000000000E+00  0.31955687249E+02  0.31955687249E+02  0.00000000000E+00 0. -1.
         21   -1    0    0  501  502  0.00000000000E+00 -0.00000000000E+00 -0.16996986395E+02  0.16996986395E+02  0.00000000000E+00 0. -1.
         21    1    1    2  503  502  0.15966292389E+02 -0.16956925175E+02  0.66065950286E+01  0.24209644812E+02  0.00000000000E+00 0. -1.
          3    1    1    2  501    0 -0.15966292389E+02  0.16956925175E+02  0.83521058249E+01  0.24743028832E+02  0.00000000000E+00 0. -1.
<mgrwt>
<rscale>  2 0.23290766E+02</rscale>
<asrwt>0</asrwt>
<pdfrwt beam="2">  1       21 0.26149210E-02 0.23290766E+02</pdfrwt>
<pdfrwt beam="1">  1        3 0.49162596E-02 0.23290766E+02</pdfrwt>
<totfact> 0.50401669E+06</totfact>
</mgrwt>
</event>
<event>
 4    1  0.2177230E+006  0.4427371E+02  0.7546771E-02  0.1478927E+00
         21   -1    0    0  503  502  0.00000000000E+00  0.00000000000E+00  0.51629431373E+02  0.51629431373E+02  0.00000000000E+00 0.  1.
         -3   -1    0    0    0  501 -0.00000000000E+00 -0.00000000000E+00 -0.44399535074E+02  0.44399535074E+02  0.00000000000E+00 0.  1.
         21    1    1    2  503  501  0.35277157441E+02  0.26752263323E+02  0.21892116199E+02  0.49390547494E+02  0.00000000000E+00 0.  1.
         -3    1    1    2    0  502 -0.35277157441E+02 -0.26752263323E+02 -0.14662219900E+02  0.46638418953E+02  0.00000000000E+00 0.  1.
<mgrwt>
<rscale>  2 0.44273710E+02</rscale>
<asrwt>0</asrwt>
<pdfrwt beam="1">  1       21 0.79429894E-02 0.44273710E+02</pdfrwt>
<pdfrwt beam="2">  1       -3 0.68306978E-02 0.44273710E+02</pdfrwt>
<totfact> 0.62878428E+05</totfact>
</mgrwt>
</event>
<event>
 4    1  0.2177230E+006  0.2370335E+02  0.7546771E-02  0.1680356E+00
          2   -1    0    0  503    0 -0.00000000000E+00  0.00000000000E+00  0.40260012105E+03  0.40260012105E+03  0.00000000000E+00 0.  1.
         21   -1    0    0  501  502  0.00000000000E+00 -0.00000000000E+00 -0.41386637822E+01  0.41386637822E+01  0.00000000000E+00 0.  1.
         21    1    1    2  503  502 -0.26838193457E+00 -0.23701826068E+02  0.33662336551E+02  0.41170395795E+02  0.00000000000E+00 0.  1.
          2    1    1    2  501    0  0.26838193457E+00  0.23701826068E+02  0.36479912072E+03  0.36556838904E+03  0.00000000000E+00 0.  1.
<mgrwt>
<rscale>  2 0.23703345E+02</rscale>
<asrwt>0</asrwt>
<pdfrwt beam="2">  1       21 0.63671782E-03 0.23703345E+02</pdfrwt>
<pdfrwt beam="1">  1        2 0.61938449E-01 0.23703345E+02</pdfrwt>
<totfact> 0.53251979E+06</totfact>
</mgrwt>
</event>
<event>
 4    1  0.2177230E+006  0.3112336E+02  0.7546771E-02  0.1585993E+00
         21   -1    0    0  501  502  0.00000000000E+00  0.00000000000E+00  0.23623497874E+02  0.23623497874E+02  0.00000000000E+00 0.  1.
          1   -1    0    0  503    0 -0.00000000000E+00 -0.00000000000E+00 -0.50212877529E+02  0.50212877529E+02  0.00000000000E+00 0.  1.
         21    1    1    2  503  502  0.30141009756E+02  0.77577677800E+01  0.25152659069E+01  0.31224829745E+02  0.00000000000E+00 0.  1.
          1    1    1    2  501    0 -0.30141009756E+02 -0.77577677800E+01 -0.29104645562E+02  0.42611545658E+02  0.00000000000E+00 0.  1.
<mgrwt>
<rscale>  2 0.31123358E+02</rscale>
<asrwt>0</asrwt>
<pdfrwt beam="1">  1       21 0.36343844E-02 0.31123358E+02</pdfrwt>
<pdfrwt beam="2">  1        1 0.77250579E-02 0.31123358E+02</pdfrwt>
<totfact> 0.32724856E+06</totfact>
</mgrwt>
</event>
<event>
 4    1  0.2177230E+006  0.2140774E+02  0.7546771E-02  0.1718701E+00
         -3   -1    0    0    0  501 -0.00000000000E+00  0.00000000000E+00  0.10306995199E+03  0.10306995199E+03  0.00000000000E+00 0.  1.
         21   -1    0    0  501  502  0.00000000000E+00 -0.00000000000E+00 -0.13197405373E+02  0.13197405373E+02  0.00000000000E+00 0.  1.
         21    1    1    2  503  502 -0.15784568337E+02  0.14461628069E+02 -0.24019822694E+01  0.21542070532E+02  0.00000000000E+00 0.  1.
         -3    1    1    2    0  503  0.15784568337E+02 -0.14461628069E+02  0.92274528887E+02  0.94725286831E+02  0.00000000000E+00 0.  1.
<mgrwt>
<rscale>  2 0.21407739E+02</rscale>
<asrwt>0</asrwt>
<pdfrwt beam="2">  1       21 0.20303701E-02 0.21407739E+02</pdfrwt>
<pdfrwt beam="1">  1       -3 0.15856915E-01 0.21407739E+02</pdfrwt>
<totfact> 0.11581195E+06</totfact>
</mgrwt>
</event>
<event>
 4    1  0.2177230E+006  0.2194286E+02  0.7546771E-02  0.1709242E+00
         -4   -1    0    0    0  501 -0.00000000000E+00  0.00000000000E+00  0.65648520926E+03  0.65648520926E+03  0.00000000000E+00 0. -1.
         21   -1    0    0  503  502  0.00000000000E+00 -0.00000000000E+00 -0.76670927687E+00  0.76670927687E+00  0.00000000000E+00 0. -1.
         21    1    1    2  503  501  0.19167938795E+02  0.10680777608E+02  0.39632040402E+03  0.39692738824E+03  0.00000000000E+00 0. -1.
         -4    1    1    2    0  502 -0.19167938795E+02 -0.10680777608E+02  0.25939809596E+03  0.26032453030E+03  0.00000000000E+00 0. -1.
<mgrwt>
<rscale>  2 0.21942855E+02</rscale>
<asrwt>0</asrwt>
<pdfrwt beam="2">  1       21 0.11795580E-03 0.21942855E+02</pdfrwt>
<pdfrwt beam="1">  1       -4 0.10099728E+00 0.21942855E+02</pdfrwt>
<totfact> 0.18645647E+06</totfact>
</mgrwt>
</event>
<event>
 4    1  0.2177230E+006  0.2038703E+02  0.7546771E-02  0.1737739E+00
          3   -1    0    0  503    0 -0.00000000000E+00  0.00000000000E+00  0.94183244712E+02  0.94183244712E+02  0.00000000000E+00 0. -1.
         21   -1    0    0  501  502  0.00000000000E+00 -0.00000000000E+00 -0.45815526841E+01  0.45815526841E+01  0.00000000000E+00 0. -1.
         21    1    1    2  503  502 -0.10068417823E+02  0.17727317833E+02  0.35329073327E+02  0.40789389027E+02  0.00000000000E+00 0. -1.
          3    1    1    2  501    0  0.10068417823E+02 -0.17727317833E+02  0.54272618701E+02  0.57975408369E+02  0.00000000000E+00 0. -1.
<mgrwt>
<rscale>  2 0.20387026E+02</rscale>
<asrwt>0</asrwt>
<pdfrwt beam="2">  1       21 0.70485433E-03 0.20387026E+02</pdfrwt>
<pdfrwt beam="1">  1        3 0.14489729E-01 0.20387026E+02</pdfrwt>
<totfact> 0.64573926E+06</totfact>
</mgrwt>
</event>
<event>
 4    1  0.2177230E+006  0.3638385E+02  0.7546771E-02  0.1536644E+00
          2   -1    0    0  502    0 -0.00000000000E+00  0.00000000000E+00  0.24097588041E+04  0.24097588041E+04  0.00000000000E+00 0. -1.
         21   -1    0    0  503  502  0.00000000000E+00 -0.00000000000E+00 -0.72589158093E+01  0.72589158093E+01  0.00000000000E+00 0.  1.
         21    1    1    2  503  501 -0.62182379792E+01  0.35848545537E+02  0.39369648998E+02  0.53607405859E+02  0.00000000000E+00 0.  1.
          2    1    1    2  501    0  0.62182379792E+01 -0.35848545537E+02  0.23631302393E+04  0.23634103141E+04  0.00000000000E+00 0. -1.
<mgrwt>
<rscale>  2 0.36383852E+02</rscale>
<asrwt>0</asrwt>
<pdfrwt beam="2">  1       21 0.11167582E-02 0.36383852E+02</pdfrwt>
<pdfrwt beam="1">  1        2 0.37073148E+00 0.36383852E+02</pdfrwt>
<totfact> 0.18432964E+05</totfact>
</mgrwt>
</event>
<event>
 4    1  0.2177230E+006  0.2912702E+02  0.7546771E-02  0.1607944E+00
          1   -1    0    0  503    0 -0.00000000000E+00  0.00000000000E+00  0.20378239234E+04  0.20378239234E+04  0.00000000000E+00 0.  1.
         21   -1    0    0  501  502  0.00000000000E+00 -0.00000000000E+00 -0.21302432618E+01  0.21302432618E+01  0.00000000000E+00 0. -1.
         21    1    1    2  503  502  0.28648232124E+02 -0.52594788083E+01  0.10295085776E+03  0.10699188023E+03  0.00000000000E+00 0. -1.
          1    1    1    2  501    0 -0.28648232124E+02  0.52594788083E+01  0.19327428224E+04  0.19329622864E+04  0.00000000000E+00 0.  1.
<mgrwt>
<rscale>  2 0.29127020E+02</rscale>
<asrwt>0</asrwt>
<pdfrwt beam="2">  1       21 0.32773136E-03 0.29127020E+02</pdfrwt>
<pdfrwt beam="1">  1        1 0.31350981E+00 0.29127020E+02</pdfrwt>
<totfact> 0.70360993E+05</totfact>
</mgrwt>
</event>
<event>
 4    1  0.2177230E+006  0.2170069E+02  0.7546771E-02  0.1713480E+00
         21   -1    0    0  501  502  0.00000000000E+00  0.00000000000E+00  0.25248601506E+02  0.25248601506E+02  0.00000000000E+00 0.  1.
          1   -1    0    0  503    0 -0.00000000000E+00 -0.00000000000E+00 -0.21009817912E+03  0.21009817912E+03  0.00000000000E+00 0.  1.
         21    1    1    2  503  502 -0.21093167872E+02  0.50988241966E+01  0.19904043716E+02  0.29446403776E+02  0.00000000000E+00 0.  1.
          1    1    1    2  501    0  0.21093167872E+02 -0.50988241966E+01 -0.20475362133E+03  0.20590037685E+03  0.00000000000E+00 0.  1.
<mgrwt>
<rscale>  2 0.21700685E+02</rscale>
<asrwt>0</asrwt>
<pdfrwt beam="1">  1       21 0.38844003E-02 0.21700685E+02</pdfrwt>
<pdfrwt beam="2">  1        1 0.32322796E-01 0.21700685E+02</pdfrwt>
<totfact> 0.47971406E+05</totfact>
</mgrwt>
</event>
<event>
 4    1  0.2177230E+006  0.2295840E+02  0.7546771E-02  0.1692185E+00
          2   -1    0    0  503    0 -0.00000000000E+00  0.00000000000E+00  0.78781480567E+03  0.78781480567E+03  0.00000000000E+00 0. -1.
         21   -1    0    0  501  502  0.00000000000E+00 -0.00000000000E+00 -0.79382989337E+00  0.79382989337E+00  0.00000000000E+00 0. -1.
         21    1    1    2  503  502  0.19654076441E+02  0.11866149774E+02  0.23718186986E+03  0.23829042704E+03  0.00000000000E+00 0. -1.
          2    1    1    2  501    0 -0.19654076441E+02 -0.11866149774E+02  0.54983910591E+03  0.55031820852E+03  0.00000000000E+00 0. -1.
<mgrwt>
<rscale>  2 0.22958402E+02</rscale>
<asrwt>0</asrwt>
<pdfrwt beam="2">  1       21 0.12212831E-03 0.22958402E+02</pdfrwt>
<pdfrwt beam="1">  1        2 0.12120165E+00 0.22958402E+02</pdfrwt>
<totfact> 0.29070361E+07</totfact>
</mgrwt>
</event>
<event>
 4    1  0.2177230E+006  0.2039205E+02  0.7546771E-02  0.1737642E+00
         -1   -1    0    0    0  501 -0.00000000000E+00  0.00000000000E+00  0.50364135905E+03  0.50364135905E+03  0.00000000000E+00 0.  1.
         21   -1    0    0  501  502  0.00000000000E+00 -0.00000000000E+00 -0.10474230857E+03  0.10474230857E+03  0.00000000000E+00 0. -1.
         21    1    1    2  503  502 -0.12616647667E+02  0.16020483275E+02 -0.10354100109E+03  0.10552997010E+03  0.00000000000E+00 0. -1.
         -1    1    1    2    0  503  0.12616647667E+02 -0.16020483275E+02  0.50244005157E+03  0.50285369751E+03  0.00000000000E+00 0.  1.
<mgrwt>
<rscale>  2 0.20392049E+02</rscale>
<asrwt>0</asrwt>
<pdfrwt beam="2">  1       21 0.16114202E-01 0.20392049E+02</pdfrwt>
<pdfrwt beam="1">  1       -1 0.77483284E-01 0.20392049E+02</pdfrwt>
<totfact> 0.56589553E+03</totfact>
</mgrwt>
</event>
<event>
 4    1  0.2177230E+006  0.3527251E+02  0.7546771E-02  0.1546194E+00
         21   -1    0    0  501  502  0.00000000000E+00  0.00000000000E+00  0.47461907948E+01  0.47461907948E+01  0.00000000000E+00 0.  1.
          2   -1    0    0  503    0 -0.00000000000E+00 -0.00000000000E+00 -0.71445791276E+03  0.71445791276E+03  0.00000000000E+00 0.  1.
         21    1    1    2  503  502 -0.34582680415E+02  0.69417509552E+01 -0.68729794145E+02  0.77252406398E+02  0.00000000000E+00 0.  1.
          2    1    1    2  501    0  0.34582680415E+02 -0.69417509552E+01 -0.64098192782E+03  0.64195169716E+03  0.00000000000E+00 0.  1.
<mgrwt>
<rscale>  2 0.35272506E+02</rscale>
<asrwt>0</asrwt>
<pdfrwt beam="1">  1       21 0.73018350E-03 0.35272506E+02</pdfrwt>
<pdfrwt beam="2">  1        2 0.10991656E+00 0.35272506E+02</pdfrwt>
<totfact> 0.25937653E+06</totfact>
</mgrwt>
</event>
<event>
 4    1  0.2177230E+006  0.2392077E+02  0.7546771E-02  0.1677005E+00
         21   -1    0    0  503  502  0.00000000000E+00  0.00000000000E+00  0.32542879849E+01  0.32542879849E+01  0.00000000000E+00 0. -1.
         -1   -1    0    0    0  501 -0.00000000000E+00 -0.00000000000E+00 -0.41179126576E+03  0.41179126576E+03  0.00000000000E+00 0.  1.
         21    1    1    2  503  501  0.96175845471E+01 -0.21902173232E+02 -0.47179012737E+02  0.52896714148E+02  0.00000000000E+00 0. -1.
         -1    1    1    2    0  502 -0.96175845471E+01  0.21902173232E+02 -0.36135796504E+03  0.36214883960E+03  0.00000000000E+00 0.  1.
<mgrwt>
<rscale>  2 0.23920768E+02</rscale>
<asrwt>0</asrwt>
<pdfrwt beam="1">  1       21 0.50065940E-03 0.23920768E+02</pdfrwt>
<pdfrwt beam="2">  1       -1 0.63352540E-01 0.23920768E+02</pdfrwt>
<totfact> 0.19237942E+06</totfact>
</mgrwt>
</event>
<event>
 4    1  0.2177230E+006  0.2737690E+02  0.7546771E-02  0.1629036E+00
         21   -1    0    0  501  502  0.00000000000E+00  0.00000000000E+00  0.21720059499E+03  0.21720059499E+03  0.00000000000E+00 0. -1.
         -2   -1    0    0    0  501 -0.00000000000E+00 -0.00000000000E+00 -0.80695020773E+01  0.80695020773E+01  0.00000000000E+00 0.  1.
         21    1    1    2  503  502  0.26523637039E+02  0.67816896236E+01  0.18978028982E+03  0.19174476013E+03  0.00000000000E+00 0. -1.
         -2    1    1    2    0  503 -0.26523637039E+02 -0.67816896236E+01  0.19350803092E+02  0.33525336929E+02  0.00000000000E+00 0.  1.
<mgrwt>
<rscale>  2 0.27376900E+02</rscale>
<asrwt>0</asrwt>
<pdfrwt beam="1">  1       21 0.33415472E-01 0.27376900E+02</pdfrwt>
<pdfrwt beam="2">  1       -2 0.12414620E-02 0.27376900E+02</pdfrwt>
<totfact> 0.78099849E+05</totfact>
</mgrwt>
</event>
<event>
 4    1  0.2177230E+006  0.2334426E+02  0.7546771E-02  0.1685990E+00
         21   -1    0    0  503  502  0.00000000000E+00  0.00000000000E+00  0.21603268948E+01  0.21603268948E+01  0.00000000000E+00 0.  1.
          1   -1    0    0  502    0 -0.00000000000E+00 -0.00000000000E+00 -0.50291837042E+03  0.50291837042E+03  0.00000000000E+00 0. -1.
         21    1    1    2  503  501 -0.21990439127E+02  0.78342194132E+01 -0.72089720021E+02  0.75775207948E+02  0.00000000000E+00 0.  1.
          1    1    1    2  501    0  0.21990439127E+02 -0.78342194132E+01 -0.42866832350E+03  0.42930348936E+03  0.00000000000E+00 0. -1.
<mgrwt>
<rscale>  2 0.23344259E+02</rscale>
<asrwt>0</asrwt>
<pdfrwt beam="1">  1       21 0.33235795E-03 0.23344259E+02</pdfrwt>
<pdfrwt beam="2">  1        1 0.77372065E-01 0.23344259E+02</pdfrwt>
<totfact> 0.72243426E+06</totfact>
</mgrwt>
</event>
<event>
 4    1  0.2177230E+006  0.4119568E+02  0.7546771E-02  0.1499592E+00
         21   -1    0    0  503  502  0.00000000000E+00  0.00000000000E+00  0.16942538507E+03  0.16942538507E+03  0.00000000000E+00 0.  1.
         -2   -1    0    0    0  501 -0.00000000000E+00 -0.00000000000E+00 -0.46283992719E+03  0.46283992719E+03  0.00000000000E+00 0.  1.
         21    1    1    2  503  501  0.39528460060E+02 -0.11601059103E+02  0.16598582918E+03  0.17102157530E+03  0.00000000000E+00 0.  1.
         -2    1    1    2    0  502 -0.39528460060E+02  0.11601059103E+02 -0.45940037131E+03  0.46124373696E+03  0.00000000000E+00 0.  1.
<mgrwt>
<rscale>  2 0.41195676E+02</rscale>
<asrwt>0</asrwt>
<pdfrwt beam="1">  1       21 0.26065444E-01 0.41195676E+02</pdfrwt>
<pdfrwt beam="2">  1       -2 0.71206142E-01 0.41195676E+02</pdfrwt>
<totfact> 0.21814340E+03</totfact>
</mgrwt>
</event>
<event>
 4    1  0.2177230E+006  0.2423911E+02  0.7546771E-02  0.1672178E+00
          2   -1    0    0  503    0 -0.00000000000E+00  0.00000000000E+00  0.10862459840E+04  0.10862459840E+04  0.00000000000E+00 0.  1.
         21   -1    0    0  501  502  0.00000000000E+00 -0.00000000000E+00 -0.10201114497E+01  0.10201114497E+01  0.00000000000E+00 0.  1.
         21    1    1    2  503  502  0.16950338678E+02  0.17326864450E+02  0.17000473797E+03  0.17172403776E+03  0.00000000000E+00 0.  1.
          2    1    1    2  501    0 -0.16950338678E+02 -0.17326864450E+02  0.91522113457E+03  0.91554205768E+03  0.00000000000E+00 0.  1.
<mgrwt>
<rscale>  2 0.24239105E+02</rscale>
<asrwt>0</asrwt>
<pdfrwt beam="2">  1       21 0.15694109E-03 0.24239105E+02</pdfrwt>
<pdfrwt beam="1">  1        2 0.16711384E+00 0.24239105E+02</pdfrwt>
<totfact> 0.13964041E+07</totfact>
</mgrwt>
</event>
<event>
 4    1  0.2177230E+006  0.2043251E+02  0.7546771E-02  0.1736861E+00
          1   -1    0    0  503    0 -0.00000000000E+00  0.00000000000E+00  0.80735597616E+03  0.80735597616E+03  0.00000000000E+00 0. -1.
         21   -1    0    0  501  502  0.00000000000E+00 -0.00000000000E+00 -0.56033257234E+00  0.56033257234E+00  0.00000000000E+00 0. -1.
         21    1    1    2  503  502  0.17400828121E+02 -0.10709741546E+02  0.29119687138E+03  0.29191283851E+03  0.00000000000E+00 0. -1.
          1    1    1    2  501    0 -0.17400828121E+02  0.10709741546E+02  0.51559877220E+03  0.51600347022E+03  0.00000000000E+00 0. -1.
<mgrwt>
<rscale>  2 0.20432508E+02</rscale>
<asrwt>0</asrwt>
<pdfrwt beam="2">  1       21 0.86205657E-04 0.20432508E+02</pdfrwt>
<pdfrwt beam="1">  1        1 0.12420768E+00 0.20432508E+02</pdfrwt>
<totfact> 0.26403752E+07</totfact>
</mgrwt>
</event>
<event>
 4    1  0.2177230E+006  0.2630312E+02  0.7546771E-02  0.1642961E+00
         21   -1    0    0  503  502  0.00000000000E+00  0.00000000000E+00  0.15033859065E+02  0.15033859065E+02  0.00000000000E+00 0. -1.
          1   -1    0    0  502    0 -0.00000000000E+00 -0.00000000000E+00 -0.60311802723E+02  0.60311802723E+02  0.00000000000E+00 0. -1.
         21    1    1    2  503  501  0.34024673420E+01  0.26082121949E+02 -0.43000002101E+01  0.26652277036E+02  0.00000000000E+00 0. -1.
          1    1    1    2  501    0 -0.34024673420E+01 -0.26082121949E+02 -0.40977943448E+02  0.48693384752E+02  0.00000000000E+00 0. -1.
<mgrwt>
<rscale>  2 0.26303115E+02</rscale>
<asrwt>0</asrwt>
<pdfrwt beam="1">  1       21 0.23129014E-02 0.26303115E+02</pdfrwt>
<pdfrwt beam="2">  1        1 0.92787387E-02 0.26303115E+02</pdfrwt>
<totfact> 0.50560975E+06</totfact>
</mgrwt>
</event>
<event>
 4    1  0.2177230E+006  0.2754885E+02  0.7546771E-02  0.1626879E+00
         -1   -1    0    0    0  501 -0.00000000000E+00  0.00000000000E+00  0.90306811505E+02  0.90306811505E+02  0.00000000000E+00 0. -1.
         21   -1    0    0  503  502  0.00000000000E+00 -0.00000000000E+00 -0.20676208799E+02  0.20676208799E+02  0.00000000000E+00 0.  1.
         21    1    1    2  503  501  0.34458172924E+01 -0.27332501970E+02 -0.79362900136E+01  0.28669217289E+02  0.00000000000E+00 0.  1.
         -1    1    1    2    0  502 -0.34458172924E+01  0.27332501970E+02  0.77566892719E+02  0.82313803015E+02  0.00000000000E+00 0. -1.
<mgrwt>
<rscale>  2 0.27548853E+02</rscale>
<asrwt>0</asrwt>
<pdfrwt beam="2">  1       21 0.31809552E-02 0.27548853E+02</pdfrwt>
<pdfrwt beam="1">  1       -1 0.13893355E-01 0.27548853E+02</pdfrwt>
<totfact> 0.13844976E+06</totfact>
</mgrwt>
</event>
<event>
 4    1  0.2177230E+006  0.3568216E+02  0.7546771E-02  0.1542625E+00
         -3   -1    0    0    0  501 -0.00000000000E+00  0.00000000000E+00  0.22551196146E+03  0.22551196146E+03  0.00000000000E+00 0. -1.
         21   -1    0    0  503  502  0.00000000000E+00 -0.00000000000E+00 -0.66884639736E+01  0.66884639736E+01  0.00000000000E+00 0. -1.
         21    1    1    2  503  501 -0.16075562042E+02  0.31855812611E+02  0.63574076665E+02  0.72903221574E+02  0.00000000000E+00 0. -1.
         -3    1    1    2    0  502  0.16075562042E+02 -0.31855812611E+02  0.15524942083E+03  0.15929720386E+03  0.00000000000E+00 0. -1.
<mgrwt>
<rscale>  2 0.35682159E+02</rscale>
<asrwt>0</asrwt>
<pdfrwt beam="2">  1       21 0.10289946E-02 0.35682159E+02</pdfrwt>
<pdfrwt beam="1">  1       -3 0.34694142E-01 0.35682159E+02</pdfrwt>
<totfact> 0.10086634E+06</totfact>
</mgrwt>
</event>
<event>
 4    1  0.2177230E+006  0.2232440E+02  0.7546771E-02  0.1702701E+00
         21   -1    0    0  503  502  0.00000000000E+00  0.00000000000E+00  0.82170724237E+00  0.82170724237E+00  0.00000000000E+00 0. -1.
         -1   -1    0    0    0  501 -0.00000000000E+00 -0.00000000000E+00 -0.10174423673E+04  0.10174423673E+04  0.00000000000E+00 0. -1.
         21    1    1    2  503  501  0.21612436777E+02  0.55929595935E+01 -0.18474833713E+03  0.18609225318E+03  0.00000000000E+00 0. -1.
         -1    1    1    2    0  502 -0.21612436777E+02 -0.55929595935E+01 -0.83187232292E+03  0.83217182136E+03  0.00000000000E+00 0. -1.
<mgrwt>
<rscale>  2 0.22324395E+02</rscale>
<asrwt>0</asrwt>
<pdfrwt beam="1">  1       21 0.12641691E-03 0.22324395E+02</pdfrwt>
<pdfrwt beam="2">  1       -1 0.15652909E+00 0.22324395E+02</pdfrwt>
<totfact> 0.20621934E+06</totfact>
</mgrwt>
</event>
<event>
 4    1  0.2177230E+006  0.2369064E+02  0.7546771E-02  0.1680554E+00
          2   -1    0    0  503    0 -0.00000000000E+00  0.00000000000E+00  0.20530539608E+04  0.20530539608E+04  0.00000000000E+00 0.  1.
         21   -1    0    0  501  502  0.00000000000E+00 -0.00000000000E+00 -0.39471586245E+00  0.39471586245E+00  0.00000000000E+00 0. -1.
         21    1    1    2  503  502  0.23384598914E+02 -0.37956292892E+01  0.45705539864E+03  0.45766896737E+03  0.00000000000E+00 0. -1.
          2    1    1    2  501    0 -0.23384598914E+02  0.37956292892E+01  0.15956038463E+04  0.15957797093E+04  0.00000000000E+00 0.  1.
<mgrwt>
<rscale>  2 0.23690637E+02</rscale>
<asrwt>0</asrwt>
<pdfrwt beam="2">  1       21 0.60727162E-04 0.23690637E+02</pdfrwt>
<pdfrwt beam="1">  1        2 0.31584590E+00 0.23690637E+02</pdfrwt>
<totfact> 0.18549505E+07</totfact>
</mgrwt>
</event>
<event>
 4    1  0.2177230E+006  0.3185531E+02  0.7546771E-02  0.1578442E+00
         21   -1    0    0  503  502  0.00000000000E+00  0.00000000000E+00  0.10608206813E+02  0.10608206813E+02  0.00000000000E+00 0. -1.
          1   -1    0    0  502    0 -0.00000000000E+00 -0.00000000000E+00 -0.24265434868E+03  0.24265434868E+03  0.00000000000E+00 0. -1.
         21    1    1    2  503  501 -0.47062361526E+01  0.31505751599E+02 -0.17463215726E+02  0.36328018747E+02  0.00000000000E+00 0. -1.
          1    1    1    2  501    0  0.47062361526E+01 -0.31505751599E+02 -0.21458292614E+03  0.21693453675E+03  0.00000000000E+00 0. -1.
<mgrwt>
<rscale>  2 0.31855314E+02</rscale>
<asrwt>0</asrwt>
<pdfrwt beam="1">  1       21 0.16320320E-02 0.31855314E+02</pdfrwt>
<pdfrwt beam="2">  1        1 0.37331435E-01 0.31855314E+02</pdfrwt>
<totfact> 0.16786212E+06</totfact>
</mgrwt>
</event>
<event>
 4    1  0.2177230E+006  0.2471168E+02  0.7546771E-02  0.1665178E+00
         -1   -1    0    0    0  501 -0.00000000000E+00  0.00000000000E+00  0.35964226290E+03  0.35964226290E+03  0.00000000000E+00 0. -1.
         21   -1    0    0  503  502  0.00000000000E+00 -0.00000000000E+00 -0.72679043433E+01  0.72679043433E+01  0.00000000000E+00 0.  1.
         21    1    1    2  503  501  0.13892035199E+02  0.20437178283E+02  0.15585666498E+02  0.29216089717E+02  0.00000000000E+00 0.  1.
         -1    1    1    2    0  502 -0.13892035199E+02 -0.20437178283E+02  0.33678869206E+03  0.33769407752E+03  0.00000000000E+00 0. -1.
<mgrwt>
<rscale>  2 0.24711675E+02</rscale>
<asrwt>0</asrwt>
<pdfrwt beam="2">  1       21 0.11181394E-02 0.24711675E+02</pdfrwt>
<pdfrwt beam="1">  1       -1 0.55329565E-01 0.24711675E+02</pdfrwt>
<totfact> 0.74493855E+05</totfact>
</mgrwt>
</event>
<event>
 4    1  0.2177230E+006  0.2532588E+02  0.7546771E-02  0.1656365E+00
          1   -1    0    0  503    0 -0.00000000000E+00  0.00000000000E+00  0.23734609496E+04  0.23734609496E+04  0.00000000000E+00 0.  1.
         21   -1    0    0  501  502  0.00000000000E+00 -0.00000000000E+00 -0.28929415527E+00  0.28929415527E+00  0.00000000000E+00 0. -1.
         21    1    1    2  503  502 -0.55467880059E+01 -0.24710995508E+02  0.88197248662E+03  0.88233602857E+03  0.00000000000E+00 0. -1.
          1    1    1    2  501    0  0.55467880059E+01  0.24710995508E+02  0.14911991689E+04  0.14914142152E+04  0.00000000000E+00 0.  1.
<mgrwt>
<rscale>  2 0.25325879E+02</rscale>
<asrwt>0</asrwt>
<pdfrwt beam="2">  1       21 0.44508694E-04 0.25325879E+02</pdfrwt>
<pdfrwt beam="1">  1        1 0.36513225E+00 0.25325879E+02</pdfrwt>
<totfact> 0.76446477E+06</totfact>
</mgrwt>
</event>
<event>
 4    1  0.2177230E+006  0.2487244E+02  0.7546771E-02  0.1662841E+00
         21   -1    0    0  501  502  0.00000000000E+00  0.00000000000E+00  0.18661655932E+03  0.18661655932E+03  0.00000000000E+00 0. -1.
          4   -1    0    0  503    0 -0.00000000000E+00 -0.00000000000E+00 -0.67338781190E+01  0.67338781190E+01  0.00000000000E+00 0. -1.
         21    1    1    2  503  502  0.13260062437E+02 -0.21043031784E+02  0.15882604497E+03  0.16076178340E+03  0.00000000000E+00 0. -1.
          4    1    1    2  501    0 -0.13260062437E+02  0.21043031784E+02  0.21056636234E+02  0.32588654038E+02  0.00000000000E+00 0. -1.
<mgrwt>
<rscale>  2 0.24872443E+02</rscale>
<asrwt>0</asrwt>
<pdfrwt beam="1">  1       21 0.28710236E-01 0.24872443E+02</pdfrwt>
<pdfrwt beam="2">  1        4 0.10359814E-02 0.24872443E+02</pdfrwt>
<totfact> 0.82988463E+05</totfact>
</mgrwt>
</event>
<event>
 4    1  0.2177230E+006  0.7525650E+02  0.7546771E-02  0.1343079E+00
          2   -1    0    0  503    0 -0.00000000000E+00  0.00000000000E+00  0.68132364938E+03  0.68132364938E+03  0.00000000000E+00 0. -1.
         21   -1    0    0  501  502  0.00000000000E+00 -0.00000000000E+00 -0.12676144730E+02  0.12676144730E+02  0.00000000000E+00 0. -1.
         21    1    1    2  503  502  0.74804945104E+02 -0.82317274219E+01  0.13073318832E+03  0.15084663628E+03  0.00000000000E+00 0. -1.
          2    1    1    2  501    0 -0.74804945104E+02  0.82317274219E+01  0.53791431633E+03  0.54315315783E+03  0.00000000000E+00 0. -1.
<mgrwt>
<rscale>  2 0.75256502E+02</rscale>
<asrwt>0</asrwt>
<pdfrwt beam="2">  1       21 0.19501766E-02 0.75256502E+02</pdfrwt>
<pdfrwt beam="1">  1        2 0.10481899E+00 0.75256502E+02</pdfrwt>
<totfact> 0.65745231E+05</totfact>
</mgrwt>
</event>
<event>
 4    1  0.2177230E+006  0.2376027E+02  0.7546771E-02  0.1679475E+00
         21   -1    0    0  503  502  0.00000000000E+00  0.00000000000E+00  0.18569195429E+03  0.18569195429E+03  0.00000000000E+00 0.  1.
         -1   -1    0    0    0  501 -0.00000000000E+00 -0.00000000000E+00 -0.59383844020E+03  0.59383844020E+03  0.00000000000E+00 0. -1.
         21    1    1    2  503  501  0.86568357906E+01  0.22127125807E+02  0.18469294070E+03  0.18621501778E+03  0.00000000000E+00 0.  1.
         -1    1    1    2    0  502 -0.86568357906E+01 -0.22127125807E+02 -0.59283942661E+03  0.59331537671E+03  0.00000000000E+00 0. -1.
<mgrwt>
<rscale>  2 0.23760272E+02</rscale>
<asrwt>0</asrwt>
<pdfrwt beam="1">  1       21 0.28567993E-01 0.23760272E+02</pdfrwt>
<pdfrwt beam="2">  1       -1 0.91359759E-01 0.23760272E+02</pdfrwt>
<totfact> 0.14985972E+03</totfact>
</mgrwt>
</event>
<event>
 4    1  0.2177230E+006  0.5423080E+02  0.7546771E-02  0.1423772E+00
         21   -1    0    0  501  502  0.00000000000E+00  0.00000000000E+00  0.67506785899E+02  0.67506785899E+02  0.00000000000E+00 0.  1.
          1   -1    0    0  503    0 -0.00000000000E+00 -0.00000000000E+00 -0.48751829080E+02  0.48751829080E+02  0.00000000000E+00 0. -1.
         21    1    1    2  503  502  0.50915701062E+02 -0.18670045974E+02  0.28336768296E+02  0.61187839223E+02  0.00000000000E+00 0.  1.
          1    1    1    2  501    0 -0.50915701062E+02  0.18670045974E+02 -0.95818114763E+01  0.55070775757E+02  0.00000000000E+00 0. -1.
<mgrwt>
<rscale>  2 0.54230796E+02</rscale>
<asrwt>0</asrwt>
<pdfrwt beam="1">  1       21 0.10385659E-01 0.54230796E+02</pdfrwt>
<pdfrwt beam="2">  1        1 0.75002814E-02 0.54230796E+02</pdfrwt>
<totfact> 0.66817468E+05</totfact>
</mgrwt>
</event>
<event>
 4    1  0.2177230E+006  0.2904439E+02  0.7546771E-02  0.1608898E+00
         -2   -1    0    0    0  501 -0.00000000000E+00  0.00000000000E+00  0.22460576770E+03  0.22460576770E+03  0.00000000000E+00 0.  1.
         21   -1    0    0  503  502  0.00000000000E+00 -0.00000000000E+00 -0.87413903547E+02  0.87413903547E+02  0.00000000000E+00 0. -1.
         21    1    1    2  503  501  0.24600227249E+02  0.15440382566E+02 -0.84025563024E+02  0.88903722285E+02  0.00000000000E+00 0. -1.
         -2    1    1    2    0  502 -0.24600227249E+02 -0.15440382566E+02  0.22121742718E+03  0.22311594897E+03  0.00000000000E+00 0.  1.
<mgrwt>
<rscale>  2 0.29044390E+02</rscale>
<asrwt>0</asrwt>
<pdfrwt beam="2">  1       21 0.13448293E-01 0.29044390E+02</pdfrwt>
<pdfrwt beam="1">  1       -2 0.34554733E-01 0.29044390E+02</pdfrwt>
<totfact> 0.27742524E+04</totfact>
</mgrwt>
</event>
<event>
 4    1  0.2177230E+006  0.2545574E+02  0.7546771E-02  0.1654541E+00
         21   -1    0    0  503  502  0.00000000000E+00  0.00000000000E+00  0.25071126976E+03  0.25071126976E+03  0.00000000000E+00 0. -1.
          2   -1    0    0  502    0 -0.00000000000E+00 -0.00000000000E+00 -0.21911493107E+02  0.21911493107E+02  0.00000000000E+00 0.  1.
         21    1    1    2  503  501 -0.51016059251E+01  0.24939297435E+02  0.24241960443E+03  0.24375245548E+03  0.00000000000E+00 0. -1.
          2    1    1    2  501    0  0.51016059251E+01 -0.24939297435E+02 -0.13619827783E+02  0.28870307383E+02  0.00000000000E+00 0.  1.
<mgrwt>
<rscale>  2 0.25455745E+02</rscale>
<asrwt>0</asrwt>
<pdfrwt beam="1">  1       21 0.38570963E-01 0.25455745E+02</pdfrwt>
<pdfrwt beam="2">  1        2 0.33709991E-02 0.25455745E+02</pdfrwt>
<totfact> 0.17443021E+05</totfact>
</mgrwt>
</event>
<event>
 4    1  0.2177230E+006  0.2457809E+02  0.7546771E-02  0.1667137E+00
         21   -1    0    0  501  502  0.00000000000E+00  0.00000000000E+00  0.41627719720E+03  0.41627719720E+03  0.00000000000E+00 0. -1.
          1   -1    0    0  503    0 -0.00000000000E+00 -0.00000000000E+00 -0.54251013515E+01  0.54251013515E+01  0.00000000000E+00 0.  1.
         21    1    1    2  503  502 -0.20439063732E+02 -0.13650173172E+02  0.38588692689E+03  0.38666885431E+03  0.00000000000E+00 0. -1.
          1    1    1    2  501    0  0.20439063732E+02  0.13650173172E+02  0.24965168960E+02  0.35033444237E+02  0.00000000000E+00 0.  1.
<mgrwt>
<rscale>  2 0.24578091E+02</rscale>
<asrwt>0</asrwt>
<pdfrwt beam="1">  1       21 0.64042621E-01 0.24578091E+02</pdfrwt>
<pdfrwt beam="2">  1        1 0.83463131E-03 0.24578091E+02</pdfrwt>
<totfact> 0.38390069E+05</totfact>
</mgrwt>
</event>
<event>
 4    1  0.2177230E+006  0.2320855E+02  0.7546771E-02  0.1688152E+00
         21   -1    0    0  501  502  0.00000000000E+00  0.00000000000E+00  0.13913875767E+01  0.13913875767E+01  0.00000000000E+00 0.  1.
          2   -1    0    0  503    0 -0.00000000000E+00 -0.00000000000E+00 -0.14565101267E+04  0.14565101267E+04  0.00000000000E+00 0. -1.
         21    1    1    2  503  502 -0.17680239479E+02 -0.15034817590E+02 -0.10294907826E+03  0.10553269315E+03  0.00000000000E+00 0.  1.
          2    1    1    2  501    0  0.17680239479E+02  0.15034817590E+02 -0.13521696609E+04  0.13523688211E+04  0.00000000000E+00 0. -1.
<mgrwt>
<rscale>  2 0.23208546E+02</rscale>
<asrwt>0</asrwt>
<pdfrwt beam="1">  1       21 0.21405939E-03 0.23208546E+02</pdfrwt>
<pdfrwt beam="2">  1        2 0.22407873E+00 0.23208546E+02</pdfrwt>
<totfact> 0.57955310E+06</totfact>
</mgrwt>
</event>
<event>
 4    1  0.2177230E+006  0.3477241E+02  0.7546771E-02  0.1550631E+00
         -3   -1    0    0    0  501 -0.00000000000E+00  0.00000000000E+00  0.45139349406E+01  0.45139349406E+01  0.00000000000E+00 0.  1.
         21   -1    0    0  503  502  0.00000000000E+00 -0.00000000000E+00 -0.42335140938E+03  0.42335140938E+03  0.00000000000E+00 0.  1.
         21    1    1    2  503  501 -0.25796641080E+02  0.23316382936E+02 -0.33906927025E+03  0.34084760587E+03  0.00000000000E+00 0.  1.
         -3    1    1    2    0  502  0.25796641080E+02 -0.23316382936E+02 -0.79768204191E+02  0.87017738445E+02  0.00000000000E+00 0.  1.
<mgrwt>
<rscale>  2 0.34772409E+02</rscale>
<asrwt>0</asrwt>
<pdfrwt beam="2">  1       21 0.65130995E-01 0.34772409E+02</pdfrwt>
<pdfrwt beam="1">  1       -3 0.69445143E-03 0.34772409E+02</pdfrwt>
<totfact> 0.38240890E+05</totfact>
</mgrwt>
</event>
<event>
 4    1  0.2177230E+006  0.2419554E+02  0.7546771E-02  0.1672833E+00
         21   -1    0    0  501  502  0.00000000000E+00  0.00000000000E+00  0.39707236755E+03  0.39707236755E+03  0.00000000000E+00 0.  1.
          3   -1    0    0  503    0 -0.00000000000E+00 -0.00000000000E+00 -0.43630368417E+01  0.43630368417E+01  0.00000000000E+00 0. -1.
         21    1    1    2  503  502  0.79961351533E+01  0.22836069517E+02  0.35967541092E+03  0.36048831530E+03  0.00000000000E+00 0.  1.
          3    1    1    2  501    0 -0.79961351533E+01 -0.22836069517E+02  0.33033919787E+02  0.40947089089E+02  0.00000000000E+00 0. -1.
<mgrwt>
<rscale>  2 0.24195542E+02</rscale>
<asrwt>0</asrwt>
<pdfrwt beam="1">  1       21 0.61088028E-01 0.24195542E+02</pdfrwt>
<pdfrwt beam="2">  1        3 0.67123675E-03 0.24195542E+02</pdfrwt>
<totfact> 0.41755415E+05</totfact>
</mgrwt>
</event>
<event>
 4    1  0.2177230E+006  0.2162687E+02  0.7546771E-02  0.1714786E+00
         21   -1    0    0  501  502  0.00000000000E+00  0.00000000000E+00  0.11369737696E+04  0.11369737696E+04  0.00000000000E+00 0.  1.
          1   -1    0    0  503    0 -0.00000000000E+00 -0.00000000000E+00 -0.20497567097E+01  0.20497567097E+01  0.00000000000E+00 0.  1.
         21    1    1    2  503  502 -0.61656948791E+01  0.20729341234E+02  0.10766278079E+04  0.10768450019E+04  0.00000000000E+00 0.  1.
          1    1    1    2  501    0  0.61656948791E+01 -0.20729341234E+02  0.58296205032E+02  0.62178524448E+02  0.00000000000E+00 0.  1.
<mgrwt>
<rscale>  2 0.21626867E+02</rscale>
<asrwt>0</asrwt>
<pdfrwt beam="1">  1       21 0.17491854E+00 0.21626867E+02</pdfrwt>
<pdfrwt beam="2">  1        1 0.31534809E-03 0.21626867E+02</pdfrwt>
<totfact> 0.14675724E+05</totfact>
</mgrwt>
</event>
<event>
 4    1  0.2177230E+006  0.4769561E+02  0.7546771E-02  0.1458182E+00
         21   -1    0    0  503  502  0.00000000000E+00  0.00000000000E+00  0.14579268858E+03  0.14579268858E+03  0.00000000000E+00 0. -1.
         -3   -1    0    0    0  501 -0.00000000000E+00 -0.00000000000E+00 -0.49678970332E+02  0.49678970332E+02  0.00000000000E+00 0. -1.
         21    1    1    2  503  501 -0.13394597148E+02  0.45776148722E+02  0.12900160548E+03  0.13753648694E+03  0.00000000000E+00 0. -1.
         -3    1    1    2    0  502  0.13394597148E+02 -0.45776148722E+02 -0.32887887230E+02  0.57935171969E+02  0.00000000000E+00 0. -1.
<mgrwt>
<rscale>  2 0.47695608E+02</rscale>
<asrwt>0</asrwt>
<pdfrwt beam="1">  1       21 0.22429644E-01 0.47695608E+02</pdfrwt>
<pdfrwt beam="2">  1       -3 0.76429186E-02 0.47695608E+02</pdfrwt>
<totfact> 0.88308960E+04</totfact>
</mgrwt>
</event>
<event>
 4    1  0.2177230E+006  0.3024095E+02  0.7546771E-02  0.1595440E+00
          2   -1    0    0  503    0 -0.00000000000E+00  0.00000000000E+00  0.11881399980E+04  0.11881399980E+04  0.00000000000E+00 0.  1.
         21   -1    0    0  501  502  0.00000000000E+00 -0.00000000000E+00 -0.88429800105E+00  0.88429800105E+00  0.00000000000E+00 0. -1.
         21    1    1    2  503  502 -0.35876876963E+01  0.30027382351E+02  0.37961304753E+03  0.38081567857E+03  0.00000000000E+00 0. -1.
          2    1    1    2  501    0  0.35876876963E+01 -0.30027382351E+02  0.80764265249E+03  0.80820861744E+03  0.00000000000E+00 0.  1.
<mgrwt>
<rscale>  2 0.30240952E+02</rscale>
<asrwt>0</asrwt>
<pdfrwt beam="2">  1       21 0.13604680E-03 0.30240952E+02</pdfrwt>
<pdfrwt beam="1">  1        2 0.18278949E+00 0.30240952E+02</pdfrwt>
<totfact> 0.16000581E+07</totfact>
</mgrwt>
</event>
<event>
 4    1  0.2177230E+006  0.2086503E+02  0.7546771E-02  0.1728653E+00
         21   -1    0    0  501  502  0.00000000000E+00  0.00000000000E+00  0.25640297735E+02  0.25640297735E+02  0.00000000000E+00 0. -1.
          2   -1    0    0  503    0 -0.00000000000E+00 -0.00000000000E+00 -0.43829642734E+02  0.43829642734E+02  0.00000000000E+00 0. -1.
         21    1    1    2  503  502 -0.41177739683E+01  0.20454672233E+02  0.18092205763E+02  0.27616617968E+02  0.00000000000E+00 0. -1.
          2    1    1    2  501    0  0.41177739683E+01 -0.20454672233E+02 -0.36281550762E+02  0.41853322501E+02  0.00000000000E+00 0. -1.
<mgrwt>
<rscale>  2 0.20865035E+02</rscale>
<asrwt>0</asrwt>
<pdfrwt beam="1">  1       21 0.39446612E-02 0.20865035E+02</pdfrwt>
<pdfrwt beam="2">  1        2 0.67430219E-02 0.20865035E+02</pdfrwt>
<totfact> 0.34025652E+06</totfact>
</mgrwt>
</event>
<event>
 4    1  0.2177230E+006  0.2044596E+02  0.7546771E-02  0.1736602E+00
         21   -1    0    0  503  502  0.00000000000E+00  0.00000000000E+00  0.16297106944E+03  0.16297106944E+03  0.00000000000E+00 0.  1.
          1   -1    0    0  502    0 -0.00000000000E+00 -0.00000000000E+00 -0.38387285936E+02  0.38387285936E+02  0.00000000000E+00 0. -1.
         21    1    1    2  503  501  0.20244446640E+02 -0.28634912234E+01  0.15954914357E+03  0.16085386665E+03  0.00000000000E+00 0.  1.
          1    1    1    2  501    0 -0.20244446640E+02  0.28634912234E+01 -0.34965360072E+02  0.40504488723E+02  0.00000000000E+00 0. -1.
<mgrwt>
<rscale>  2 0.20445958E+02</rscale>
<asrwt>0</asrwt>
<pdfrwt beam="1">  1       21 0.25072472E-01 0.20445958E+02</pdfrwt>
<pdfrwt beam="2">  1        1 0.59057364E-02 0.20445958E+02</pdfrwt>
<totfact> 0.17071510E+05</totfact>
</mgrwt>
</event>
<event>
 4    1  0.2177230E+006  0.2461922E+02  0.7546771E-02  0.1666532E+00
         21   -1    0    0  503  502  0.00000000000E+00  0.00000000000E+00  0.32435943190E+01  0.32435943190E+01  0.00000000000E+00 0. -1.
         -2   -1    0    0    0  501 -0.00000000000E+00 -0.00000000000E+00 -0.31580763713E+03  0.31580763713E+03  0.00000000000E+00 0. -1.
         21    1    1    2  503  501  0.22151300721E+02  0.10743633836E+02 -0.54347384042E+02  0.59663589767E+02  0.00000000000E+00 0. -1.
         -2    1    1    2    0  502 -0.22151300721E+02 -0.10743633836E+02 -0.25821665877E+03  0.25938764168E+03  0.00000000000E+00 0. -1.
<mgrwt>
<rscale>  2 0.24619216E+02</rscale>
<asrwt>0</asrwt>
<pdfrwt beam="1">  1       21 0.49901451E-03 0.24619216E+02</pdfrwt>
<pdfrwt beam="2">  1       -2 0.48585790E-01 0.24619216E+02</pdfrwt>
<totfact> 0.25257320E+06</totfact>
</mgrwt>
</event>
<event>
 4    1  0.2177230E+006  0.2051882E+02  0.7546771E-02  0.1735203E+00
         21   -1    0    0  501  502  0.00000000000E+00  0.00000000000E+00  0.29100485169E+01  0.29100485169E+01  0.00000000000E+00 0.  1.
          4   -1    0    0  503    0 -0.00000000000E+00 -0.00000000000E+00 -0.20292410922E+03  0.20292410922E+03  0.00000000000E+00 0.  1.
         21    1    1    2  503  502  0.14669770110E+02  0.14346422530E+02 -0.44868964093E+02  0.49338077924E+02  0.00000000000E+00 0.  1.
          4    1    1    2  501    0 -0.14669770110E+02 -0.14346422530E+02 -0.15514509661E+03  0.15649607981E+03  0.00000000000E+00 0.  1.
<mgrwt>
<rscale>  2 0.20518820E+02</rscale>
<asrwt>0</asrwt>
<pdfrwt beam="1">  1       21 0.44769958E-03 0.20518820E+02</pdfrwt>
<pdfrwt beam="2">  1        4 0.31219107E-01 0.20518820E+02</pdfrwt>
<totfact> 0.27028395E+06</totfact>
</mgrwt>
</event>
<event>
 4    1  0.2177230E+006  0.2088226E+02  0.7546771E-02  0.1728332E+00
         21   -1    0    0  501  502  0.00000000000E+00  0.00000000000E+00  0.27542544195E+01  0.27542544195E+01  0.00000000000E+00 0. -1.
          1   -1    0    0  503    0 -0.00000000000E+00 -0.00000000000E+00 -0.47647521643E+03  0.47647521643E+03  0.00000000000E+00 0. -1.
         21    1    1    2  503  502  0.61481871646E+01  0.19956667959E+02 -0.41062093362E+02  0.46066954672E+02  0.00000000000E+00 0. -1.
          1    1    1    2  501    0 -0.61481871646E+01 -0.19956667959E+02 -0.43265886865E+03  0.43316251618E+03  0.00000000000E+00 0. -1.
<mgrwt>
<rscale>  2 0.20882260E+02</rscale>
<asrwt>0</asrwt>
<pdfrwt beam="1">  1       21 0.42373148E-03 0.20882260E+02</pdfrwt>
<pdfrwt beam="2">  1        1 0.73303874E-01 0.20882260E+02</pdfrwt>
<totfact> 0.52485658E+06</totfact>
</mgrwt>
</event>
<event>
 4    1  0.2177230E+006  0.2017183E+02  0.7546771E-02  0.1741933E+00
         21   -1    0    0  501  502  0.00000000000E+00  0.00000000000E+00  0.19281525172E+03  0.19281525172E+03  0.00000000000E+00 0.  1.
          1   -1    0    0  503    0 -0.00000000000E+00 -0.00000000000E+00 -0.16645266884E+03  0.16645266884E+03  0.00000000000E+00 0. -1.
         21    1    1    2  503  502  0.43442210472E+01  0.19698484930E+02  0.19167290000E+03  0.19273142753E+03  0.00000000000E+00 0.  1.
          1    1    1    2  501    0 -0.43442210472E+01 -0.19698484930E+02 -0.16531031712E+03  0.16653649303E+03  0.00000000000E+00 0. -1.
<mgrwt>
<rscale>  2 0.20171826E+02</rscale>
<asrwt>0</asrwt>
<pdfrwt beam="1">  1       21 0.29663885E-01 0.20171826E+02</pdfrwt>
<pdfrwt beam="2">  1        1 0.25608103E-01 0.20171826E+02</pdfrwt>
<totfact> 0.21074801E+04</totfact>
</mgrwt>
</event>
<event>
 4    1  0.2177230E+006  0.6112281E+02  0.7546771E-02  0.1393179E+00
         21   -1    0    0  501  502  0.00000000000E+00  0.00000000000E+00  0.54142627014E+01  0.54142627014E+01  0.00000000000E+00 0. -1.
          2   -1    0    0  503    0 -0.00000000000E+00 -0.00000000000E+00 -0.11352133428E+04  0.11352133428E+04  0.00000000000E+00 0.  1.
         21    1    1    2  503  502  0.45811033374E+02  0.40464153194E+02 -0.20775413882E+03  0.21655895425E+03  0.00000000000E+00 0. -1.
          2    1    1    2  501    0 -0.45811033374E+02 -0.40464153194E+02 -0.92204494124E+03  0.92406865120E+03  0.00000000000E+00 0.  1.
<mgrwt>
<rscale>  2 0.61122815E+02</rscale>
<asrwt>0</asrwt>
<pdfrwt beam="1">  1       21 0.83296337E-03 0.61122815E+02</pdfrwt>
<pdfrwt beam="2">  1        2 0.17464823E+00 0.61122815E+02</pdfrwt>
<totfact> 0.12804655E+06</totfact>
</mgrwt>
</event>
<event>
 4    1  0.2177230E+006  0.2770409E+02  0.7546771E-02  0.1624948E+00
          1   -1    0    0  503    0 -0.00000000000E+00  0.00000000000E+00  0.31195177891E+02  0.31195177891E+02  0.00000000000E+00 0. -1.
         21   -1    0    0  501  502  0.00000000000E+00 -0.00000000000E+00 -0.14495743071E+03  0.14495743071E+03  0.00000000000E+00 0. -1.
         21    1    1    2  503  502 -0.14292292868E+02  0.23732822550E+02 -0.13713548674E+03  0.13990589060E+03  0.00000000000E+00 0. -1.
          1    1    1    2  501    0  0.14292292868E+02 -0.23732822550E+02  0.23373233923E+02  0.36246717998E+02  0.00000000000E+00 0. -1.
<mgrwt>
<rscale>  2 0.27704088E+02</rscale>
<asrwt>0</asrwt>
<pdfrwt beam="2">  1       21 0.22301143E-01 0.27704088E+02</pdfrwt>
<pdfrwt beam="1">  1        1 0.47992581E-02 0.27704088E+02</pdfrwt>
<totfact> 0.28704359E+05</totfact>
</mgrwt>
</event>
<event>
 4    1  0.2177230E+006  0.2146656E+02  0.7546771E-02  0.1717644E+00
         21   -1    0    0  501  502  0.00000000000E+00  0.00000000000E+00  0.53950868047E+03  0.53950868047E+03  0.00000000000E+00 0.  1.
          4   -1    0    0  503    0 -0.00000000000E+00 -0.00000000000E+00 -0.13726908951E+02  0.13726908951E+02  0.00000000000E+00 0. -1.
         21    1    1    2  503  502  0.12292438293E+02  0.17598550898E+02  0.53076442533E+03  0.53119835112E+03  0.00000000000E+00 0.  1.
          4    1    1    2  501    0 -0.12292438293E+02 -0.17598550898E+02 -0.49826538152E+01  0.22037238301E+02  0.00000000000E+00 0. -1.
<mgrwt>
<rscale>  2 0.21466556E+02</rscale>
<asrwt>0</asrwt>
<pdfrwt beam="1">  1       21 0.83001319E-01 0.21466556E+02</pdfrwt>
<pdfrwt beam="2">  1        4 0.21118326E-02 0.21466556E+02</pdfrwt>
<totfact> 0.35546419E+04</totfact>
</mgrwt>
</event>
<event>
 4    1  0.2177230E+006  0.2015394E+02  0.7546771E-02  0.1742284E+00
         21   -1    0    0  503  502  0.00000000000E+00  0.00000000000E+00  0.54323189960E+03  0.54323189960E+03  0.00000000000E+00 0. -1.
         -2   -1    0    0    0  501 -0.00000000000E+00 -0.00000000000E+00 -0.77237544349E+01  0.77237544349E+01  0.00000000000E+00 0.  1.
         21    1    1    2  503  501  0.19204799132E+02  0.61120473655E+01  0.52955847935E+03  0.52994185010E+03  0.00000000000E+00 0. -1.
         -2    1    1    2    0  502 -0.19204799132E+02 -0.61120473655E+01  0.59496658179E+01  0.21013803941E+02  0.00000000000E+00 0.  1.
<mgrwt>
<rscale>  2 0.20153943E+02</rscale>
<asrwt>0</asrwt>
<pdfrwt beam="1">  1       21 0.83574108E-01 0.20153943E+02</pdfrwt>
<pdfrwt beam="2">  1       -2 0.11882703E-02 0.20153943E+02</pdfrwt>
<totfact> 0.12944959E+05</totfact>
</mgrwt>
</event>
<event>
 4    1  0.2177230E+006  0.3124240E+02  0.7546771E-02  0.1584748E+00
         21   -1    0    0  503  502  0.00000000000E+00  0.00000000000E+00  0.32226915022E+01  0.32226915022E+01  0.00000000000E+00 0.  1.
          2   -1    0    0  502    0 -0.00000000000E+00 -0.00000000000E+00 -0.82463914520E+03  0.82463914520E+03  0.00000000000E+00 0.  1.
         21    1    1    2  503  501  0.25749439897E+01 -0.31136105468E+02 -0.81454189005E+02  0.87240313541E+02  0.00000000000E+00 0.  1.
          2    1    1    2  501    0 -0.25749439897E+01  0.31136105468E+02 -0.73996226470E+03  0.74062152316E+03  0.00000000000E+00 0.  1.
<mgrwt>
<rscale>  2 0.31242397E+02</rscale>
<asrwt>0</asrwt>
<pdfrwt beam="1">  1       21 0.49579772E-03 0.31242397E+02</pdfrwt>
<pdfrwt beam="2">  1        2 0.12686781E+00 0.31242397E+02</pdfrwt>
<totfact> 0.38489452E+06</totfact>
</mgrwt>
</event>
<event>
 4    1  0.2177230E+006  0.2486687E+02  0.7546771E-02  0.1662921E+00
         -4   -1    0    0    0  501 -0.00000000000E+00  0.00000000000E+00  0.11285198921E+03  0.11285198921E+03  0.00000000000E+00 0. -1.
         21   -1    0    0  501  502  0.00000000000E+00 -0.00000000000E+00 -0.76263277929E+03  0.76263277929E+03  0.00000000000E+00 0. -1.
         21    1    1    2  503  502  0.93858493432E+01 -0.23027528300E+02 -0.76105738828E+03  0.76146353129E+03  0.00000000000E+00 0. -1.
         -4    1    1    2    0  503 -0.93858493432E+01  0.23027528300E+02  0.11127659820E+03  0.11402123721E+03  0.00000000000E+00 0. -1.
<mgrwt>
<rscale>  2 0.24866870E+02</rscale>
<asrwt>0</asrwt>
<pdfrwt beam="2">  1       21 0.11732812E+00 0.24866870E+02</pdfrwt>
<pdfrwt beam="1">  1       -4 0.17361844E-01 0.24866870E+02</pdfrwt>
<totfact> 0.63948862E+02</totfact>
</mgrwt>
</event>
<event>
 4    1  0.2177230E+006  0.2066403E+02  0.7546771E-02  0.1732436E+00
         -2   -1    0    0    0  501 -0.00000000000E+00  0.00000000000E+00  0.28391692152E+03  0.28391692152E+03  0.00000000000E+00 0.  1.
         21   -1    0    0  503  502  0.00000000000E+00 -0.00000000000E+00 -0.14120295374E+02  0.14120295374E+02  0.00000000000E+00 0.  1.
         21    1    1    2  503  501 -0.17455896129E+02 -0.11058658914E+02 -0.59608392685E+01  0.21506600183E+02  0.00000000000E+00 0.  1.
         -2    1    1    2    0  502  0.17455896129E+02  0.11058658914E+02  0.27575746542E+03  0.27653061672E+03  0.00000000000E+00 0.  1.
<mgrwt>
<rscale>  2 0.20664033E+02</rscale>
<asrwt>0</asrwt>
<pdfrwt beam="2">  1       21 0.21723534E-02 0.20664033E+02</pdfrwt>
<pdfrwt beam="1">  1       -2 0.43679522E-01 0.20664033E+02</pdfrwt>
<totfact> 0.32320958E+05</totfact>
</mgrwt>
</event>
<event>
 4    1  0.2177230E+006  0.2379591E+02  0.7546771E-02  0.1678924E+00
         -2   -1    0    0    0  501 -0.00000000000E+00  0.00000000000E+00  0.14504664807E+03  0.14504664807E+03  0.00000000000E+00 0.  1.
         21   -1    0    0  503  502  0.00000000000E+00 -0.00000000000E+00 -0.23157377508E+02  0.23157377508E+02  0.00000000000E+00 0.  1.
         21    1    1    2  503  501  0.71667108805E+01 -0.22691049579E+02 -0.15741430698E+02  0.28531353214E+02  0.00000000000E+00 0.  1.
         -2    1    1    2    0  502 -0.71667108805E+01  0.22691049579E+02  0.13763070126E+03  0.13967267237E+03  0.00000000000E+00 0.  1.
<mgrwt>
<rscale>  2 0.23795913E+02</rscale>
<asrwt>0</asrwt>
<pdfrwt beam="2">  1       21 0.35626736E-02 0.23795913E+02</pdfrwt>
<pdfrwt beam="1">  1       -2 0.22314868E-01 0.23795913E+02</pdfrwt>
<totfact> 0.49479546E+05</totfact>
</mgrwt>
</event>
<event>
 4    1  0.2177230E+006  0.2451071E+02  0.7546771E-02  0.1668131E+00
          1   -1    0    0  503    0 -0.00000000000E+00  0.00000000000E+00  0.40487215983E+03  0.40487215983E+03  0.00000000000E+00 0.  1.
         21   -1    0    0  501  502  0.00000000000E+00 -0.00000000000E+00 -0.84938878142E+02  0.84938878142E+02  0.00000000000E+00 0.  1.
         21    1    1    2  503  502 -0.26090053557E+01 -0.24371463093E+02 -0.82790229578E+02  0.86342325866E+02  0.00000000000E+00 0.  1.
          1    1    1    2  501    0  0.26090053557E+01  0.24371463093E+02  0.40272351127E+03  0.40346871211E+03  0.00000000000E+00 0.  1.
<mgrwt>
<rscale>  2 0.24510714E+02</rscale>
<asrwt>0</asrwt>
<pdfrwt beam="2">  1       21 0.13067520E-01 0.24510714E+02</pdfrwt>
<pdfrwt beam="1">  1        1 0.62288024E-01 0.24510714E+02</pdfrwt>
<totfact> 0.31779243E+04</totfact>
</mgrwt>
</event>
<event>
 4    1  0.2177230E+006  0.2359300E+02  0.7546771E-02  0.1682074E+00
         -1   -1    0    0    0  501 -0.00000000000E+00  0.00000000000E+00  0.12647737744E+01  0.12647737744E+01  0.00000000000E+00 0. -1.
         21   -1    0    0  503  502  0.00000000000E+00 -0.00000000000E+00 -0.12458026841E+04  0.12458026841E+04  0.00000000000E+00 0. -1.
         21    1    1    2  503  501  0.98482448345E+01  0.21439257056E+02 -0.11237126131E+04  0.11239602602E+04  0.00000000000E+00 0. -1.
         -1    1    1    2    0  502 -0.98482448345E+01 -0.21439257056E+02 -0.12082529721E+03  0.12310719766E+03  0.00000000000E+00 0. -1.
<mgrwt>
<rscale>  2 0.23593000E+02</rscale>
<asrwt>0</asrwt>
<pdfrwt beam="2">  1       21 0.19166233E+00 0.23593000E+02</pdfrwt>
<pdfrwt beam="1">  1       -1 0.19458020E-03 0.23593000E+02</pdfrwt>
<totfact> 0.22152699E+05</totfact>
</mgrwt>
</event>
<event>
 4    1  0.2177230E+006  0.2298436E+02  0.7546771E-02  0.1691764E+00
          4   -1    0    0  503    0 -0.00000000000E+00  0.00000000000E+00  0.63830743814E+02  0.63830743814E+02  0.00000000000E+00 0.  1.
         21   -1    0    0  501  502  0.00000000000E+00 -0.00000000000E+00 -0.21409225668E+02  0.21409225668E+02  0.00000000000E+00 0.  1.
         21    1    1    2  503  502  0.22220104236E+02  0.58777416968E+01 -0.12169825883E+02  0.26007413208E+02  0.00000000000E+00 0.  1.
          4    1    1    2  501    0 -0.22220104236E+02 -0.58777416968E+01  0.54591344029E+02  0.59232556273E+02  0.00000000000E+00 0.  1.
<mgrwt>
<rscale>  2 0.22984362E+02</rscale>
<asrwt>0</asrwt>
<pdfrwt beam="2">  1       21 0.32937271E-02 0.22984362E+02</pdfrwt>
<pdfrwt beam="1">  1        4 0.98201144E-02 0.22984362E+02</pdfrwt>
<totfact> 0.99352757E+05</totfact>
</mgrwt>
</event>
<event>
 4    1  0.2177230E+006  0.2841087E+02  0.7546771E-02  0.1616349E+00
          3   -1    0    0  503    0 -0.00000000000E+00  0.00000000000E+00  0.91850446049E+02  0.91850446049E+02  0.00000000000E+00 0. -1.
         21   -1    0    0  501  502  0.00000000000E+00 -0.00000000000E+00 -0.19016015946E+02  0.19016015946E+02  0.00000000000E+00 0.  1.
         21    1    1    2  503  502  0.27545112158E+02  0.69601849729E+01 -0.42371448902E+01  0.28725089652E+02  0.00000000000E+00 0.  1.
          3    1    1    2  501    0 -0.27545112158E+02 -0.69601849729E+01  0.77071574992E+02  0.82141372344E+02  0.00000000000E+00 0. -1.
<mgrwt>
<rscale>  2 0.28410867E+02</rscale>
<asrwt>0</asrwt>
<pdfrwt beam="2">  1       21 0.29255410E-02 0.28410867E+02</pdfrwt>
<pdfrwt beam="1">  1        3 0.14130838E-01 0.28410867E+02</pdfrwt>
<totfact> 0.87542511E+05</totfact>
</mgrwt>
</event>
<event>
 4    1  0.2177230E+006  0.2074323E+02  0.7546771E-02  0.1730940E+00
         21   -1    0    0  501  502  0.00000000000E+00  0.00000000000E+00  0.10645362791E+03  0.10645362791E+03  0.00000000000E+00 0.  1.
          4   -1    0    0  503    0 -0.00000000000E+00 -0.00000000000E+00 -0.47788018064E+01  0.47788018064E+01  0.00000000000E+00 0. -1.
         21    1    1    2  503  502 -0.18167054849E+02 -0.10011971243E+02  0.72676206897E+02  0.75578518767E+02  0.00000000000E+00 0.  1.
          4    1    1    2  501    0  0.18167054849E+02  0.10011971243E+02  0.28998619203E+02  0.35653910946E+02  0.00000000000E+00 0. -1.
<mgrwt>
<rscale>  2 0.20743227E+02</rscale>
<asrwt>0</asrwt>
<pdfrwt beam="1">  1       21 0.16377479E-01 0.20743227E+02</pdfrwt>
<pdfrwt beam="2">  1        4 0.73520035E-03 0.20743227E+02</pdfrwt>
<totfact> 0.33774550E+06</totfact>
</mgrwt>
</event>
<event>
 4    1  0.2177230E+006  0.2341997E+02  0.7546771E-02  0.1684792E+00
         21   -1    0    0  501  502  0.00000000000E+00  0.00000000000E+00  0.36737565213E+00  0.36737565213E+00  0.00000000000E+00 0.  1.
          2   -1    0    0  503    0 -0.00000000000E+00 -0.00000000000E+00 -0.15825205519E+04  0.15825205519E+04  0.00000000000E+00 0.  1.
         21    1    1    2  503  502 -0.11507166466E+02  0.20398043361E+02 -0.97930522987E+03  0.97958523279E+03  0.00000000000E+00 0.  1.
          2    1    1    2  501    0  0.11507166466E+02 -0.20398043361E+02 -0.60284794638E+03  0.60330269476E+03  0.00000000000E+00 0.  1.
<mgrwt>
<rscale>  2 0.23419971E+02</rscale>
<asrwt>0</asrwt>
<pdfrwt beam="1">  1       21 0.56518480E-04 0.23419971E+02</pdfrwt>
<pdfrwt beam="2">  1        2 0.24346837E+00 0.23419971E+02</pdfrwt>
<totfact> 0.33903847E+07</totfact>
</mgrwt>
</event>
<event>
 4    1  0.2177230E+006  0.2117532E+02  0.7546771E-02  0.1722917E+00
          1   -1    0    0  503    0 -0.00000000000E+00  0.00000000000E+00  0.59976504114E+03  0.59976504114E+03  0.00000000000E+00 0.  1.
         21   -1    0    0  501  502  0.00000000000E+00 -0.00000000000E+00 -0.57264423325E+01  0.57264423325E+01  0.00000000000E+00 0. -1.
         21    1    1    2  503  502  0.16322604838E+01  0.21112319945E+02  0.14726982431E+02  0.25792990119E+02  0.00000000000E+00 0. -1.
          1    1    1    2  501    0 -0.16322604838E+01 -0.21112319945E+02  0.57931161638E+03  0.57969849336E+03  0.00000000000E+00 0.  1.
<mgrwt>
<rscale>  2 0.21175324E+02</rscale>
<asrwt>0</asrwt>
<pdfrwt beam="2">  1       21 0.88099160E-03 0.21175324E+02</pdfrwt>
<pdfrwt beam="1">  1        1 0.92271495E-01 0.21175324E+02</pdfrwt>
<totfact> 0.13494600E+06</totfact>
</mgrwt>
</event>
<event>
 4    1  0.2177230E+006  0.2306790E+02  0.7546771E-02  0.1690412E+00
         21   -1    0    0  503  502  0.00000000000E+00  0.00000000000E+00  0.10266407413E+01  0.10266407413E+01  0.00000000000E+00 0.  1.
          2   -1    0    0  502    0 -0.00000000000E+00 -0.00000000000E+00 -0.67625307149E+03  0.67625307149E+03  0.00000000000E+00 0.  1.
         21    1    1    2  503  501 -0.22725854817E+02 -0.39577395189E+01 -0.17396159080E+03  0.17548436754E+03  0.00000000000E+00 0.  1.
          2    1    1    2  501    0  0.22725854817E+02  0.39577395189E+01 -0.50126483995E+03  0.50179534469E+03  0.00000000000E+00 0.  1.
<mgrwt>
<rscale>  2 0.23067904E+02</rscale>
<asrwt>0</asrwt>
<pdfrwt beam="1">  1       21 0.15794384E-03 0.23067904E+02</pdfrwt>
<pdfrwt beam="2">  1        2 0.10403952E+00 0.23067904E+02</pdfrwt>
<totfact> 0.23817329E+07</totfact>
</mgrwt>
</event>
<event>
 4    1  0.2177230E+006  0.2401409E+02  0.7546771E-02  0.1675580E+00
         -3   -1    0    0    0  501 -0.00000000000E+00  0.00000000000E+00  0.95425690537E+02  0.95425690537E+02  0.00000000000E+00 0. -1.
         21   -1    0    0  503  502  0.00000000000E+00 -0.00000000000E+00 -0.63215046999E+01  0.63215046999E+01  0.00000000000E+00 0. -1.
         21    1    1    2  503  501 -0.23360882250E+02  0.55628744586E+01  0.55226497114E+02  0.60221610534E+02  0.00000000000E+00 0. -1.
         -3    1    1    2    0  502  0.23360882250E+02 -0.55628744586E+01  0.33877688723E+02  0.41525584704E+02  0.00000000000E+00 0. -1.
<mgrwt>
<rscale>  2 0.24014087E+02</rscale>
<asrwt>0</asrwt>
<pdfrwt beam="2">  1       21 0.97253925E-03 0.24014087E+02</pdfrwt>
<pdfrwt beam="1">  1       -3 0.14680874E-01 0.24014087E+02</pdfrwt>
<totfact> 0.41936827E+06</totfact>
</mgrwt>
</event>
<event>
 4    1  0.2177230E+006  0.2116383E+02  0.7546771E-02  0.1723128E+00
         -4   -1    0    0    0  501 -0.00000000000E+00  0.00000000000E+00  0.40338830184E+01  0.40338830184E+01  0.00000000000E+00 0. -1.
         21   -1    0    0  503  502  0.00000000000E+00 -0.00000000000E+00 -0.37978103904E+03  0.37978103904E+03  0.00000000000E+00 0. -1.
         21    1    1    2  503  501  0.84176004564E+01 -0.19417813808E+02 -0.34930764833E+03  0.34994819713E+03  0.00000000000E+00 0. -1.
         -4    1    1    2    0  502 -0.84176004564E+01  0.19417813808E+02 -0.26439507685E+02  0.33866724925E+02  0.00000000000E+00 0. -1.
<mgrwt>
<rscale>  2 0.21163825E+02</rscale>
<asrwt>0</asrwt>
<pdfrwt beam="2">  1       21 0.58427850E-01 0.21163825E+02</pdfrwt>
<pdfrwt beam="1">  1       -4 0.62059741E-03 0.21163825E+02</pdfrwt>
<totfact> 0.42439372E+05</totfact>
</mgrwt>
</event>
<event>
 4    1  0.2177230E+006  0.2111155E+02  0.7546771E-02  0.1724086E+00
         21   -1    0    0  501  502  0.00000000000E+00  0.00000000000E+00  0.15242015235E+02  0.15242015235E+02  0.00000000000E+00 0. -1.
          2   -1    0    0  503    0 -0.00000000000E+00 -0.00000000000E+00 -0.32933141017E+02  0.32933141017E+02  0.00000000000E+00 0. -1.
         21    1    1    2  503  502  0.26190148732E+01  0.20948470235E+02 -0.78077364599E+00  0.21125985222E+02  0.00000000000E+00 0. -1.
          2    1    1    2  501    0 -0.26190148732E+01 -0.20948470235E+02 -0.16910352136E+02  0.27049171031E+02  0.00000000000E+00 0. -1.
<mgrwt>
<rscale>  2 0.21111552E+02</rscale>
<asrwt>0</asrwt>
<pdfrwt beam="1">  1       21 0.23449254E-02 0.21111552E+02</pdfrwt>
<pdfrwt beam="2">  1        2 0.50666370E-02 0.21111552E+02</pdfrwt>
<totfact> 0.10802063E+07</totfact>
</mgrwt>
</event>
<event>
 4    1  0.2177230E+006  0.2280104E+02  0.7546771E-02  0.1694756E+00
         -1   -1    0    0    0  501 -0.00000000000E+00  0.00000000000E+00  0.25792067126E+02  0.25792067126E+02  0.00000000000E+00 0.  1.
         21   -1    0    0  503  502  0.00000000000E+00 -0.00000000000E+00 -0.19742651081E+03  0.19742651081E+03  0.00000000000E+00 0.  1.
         21    1    1    2  503  501 -0.16509264561E+02 -0.15726775788E+02 -0.19157560218E+03  0.19292770315E+03  0.00000000000E+00 0.  1.
         -1    1    1    2    0  502  0.16509264561E+02  0.15726775788E+02  0.19941158496E+02  0.30290874784E+02  0.00000000000E+00 0.  1.
<mgrwt>
<rscale>  2 0.22801037E+02</rscale>
<asrwt>0</asrwt>
<pdfrwt beam="2">  1       21 0.30373309E-01 0.22801037E+02</pdfrwt>
<pdfrwt beam="1">  1       -1 0.39680104E-02 0.22801037E+02</pdfrwt>
<totfact> 0.18440298E+05</totfact>
</mgrwt>
</event>
<event>
 4    1  0.2177230E+006  0.3895210E+02  0.7546771E-02  0.1516068E+00
         21   -1    0    0  503  502  0.00000000000E+00  0.00000000000E+00  0.13690187709E+04  0.13690187709E+04  0.00000000000E+00 0.  1.
          2   -1    0    0  502    0 -0.00000000000E+00 -0.00000000000E+00 -0.22611282265E+02  0.22611282265E+02  0.00000000000E+00 0. -1.
         21    1    1    2  503  501  0.38322151131E+02  0.69770113372E+01  0.13517519173E+04  0.13523130229E+04  0.00000000000E+00 0.  1.
          2    1    1    2  501    0 -0.38322151131E+02 -0.69770113372E+01 -0.53444286350E+01  0.39317030304E+02  0.00000000000E+00 0. -1.
<mgrwt>
<rscale>  2 0.38952098E+02</rscale>
<asrwt>0</asrwt>
<pdfrwt beam="1">  1       21 0.21061821E+00 0.38952098E+02</pdfrwt>
<pdfrwt beam="2">  1        2 0.34786599E-02 0.38952098E+02</pdfrwt>
<totfact> 0.39972127E+03</totfact>
</mgrwt>
</event>
<event>
 4    1  0.2177230E+006  0.2352450E+02  0.7546771E-02  0.1683147E+00
         -1   -1    0    0    0  501 -0.00000000000E+00  0.00000000000E+00  0.42828372591E+03  0.42828372591E+03  0.00000000000E+00 0. -1.
         21   -1    0    0  501  502  0.00000000000E+00 -0.00000000000E+00 -0.69476722837E+01  0.69476722837E+01  0.00000000000E+00 0.  1.
         21    1    1    2  503  502 -0.18508065481E+02 -0.14520797499E+02  0.14328677775E+02  0.27544746407E+02  0.00000000000E+00 0.  1.
         -1    1    1    2    0  503  0.18508065481E+02  0.14520797499E+02  0.40700737586E+03  0.40768665179E+03  0.00000000000E+00 0. -1.
<mgrwt>
<rscale>  2 0.23524499E+02</rscale>
<asrwt>0</asrwt>
<pdfrwt beam="2">  1       21 0.10688730E-02 0.23524499E+02</pdfrwt>
<pdfrwt beam="1">  1       -1 0.65889784E-01 0.23524499E+02</pdfrwt>
<totfact> 0.57554233E+05</totfact>
</mgrwt>
</event>
<event>
 4    1  0.2177230E+006  0.2224346E+02  0.7546771E-02  0.1704075E+00
          3   -1    0    0  503    0 -0.00000000000E+00  0.00000000000E+00  0.47121464256E+02  0.47121464256E+02  0.00000000000E+00 0.  1.
         21   -1    0    0  501  502  0.00000000000E+00 -0.00000000000E+00 -0.21672551793E+02  0.21672551793E+02  0.00000000000E+00 0. -1.
         21    1    1    2  503  502 -0.13523712233E+02 -0.17660141865E+02 -0.11972502119E+02  0.25260883005E+02  0.00000000000E+00 0. -1.
          3    1    1    2  501    0  0.13523712233E+02  0.17660141865E+02  0.37421414583E+02  0.43533133044E+02  0.00000000000E+00 0.  1.
<mgrwt>
<rscale>  2 0.22243458E+02</rscale>
<asrwt>0</asrwt>
<pdfrwt beam="2">  1       21 0.33342388E-02 0.22243458E+02</pdfrwt>
<pdfrwt beam="1">  1        3 0.72494560E-02 0.22243458E+02</pdfrwt>
<totfact> 0.18787463E+06</totfact>
</mgrwt>
</event>
<event>
 4    1  0.2177230E+006  0.4662286E+02  0.7546771E-02  0.1464457E+00
          4   -1    0    0  502    0 -0.00000000000E+00  0.00000000000E+00  0.29900262833E+03  0.29900262833E+03  0.00000000000E+00 0. -1.
         21   -1    0    0  503  502  0.00000000000E+00 -0.00000000000E+00 -0.91670453145E+01  0.91670453145E+01  0.00000000000E+00 0. -1.
         21    1    1    2  503  501 -0.44393840278E+02  0.14243534724E+02  0.74819701997E+02  0.88157127579E+02  0.00000000000E+00 0. -1.
          4    1    1    2  501    0  0.44393840278E+02 -0.14243534724E+02  0.21501588102E+03  0.22001254607E+03  0.00000000000E+00 0. -1.
<mgrwt>
<rscale>  2 0.46622863E+02</rscale>
<asrwt>0</asrwt>
<pdfrwt beam="2">  1       21 0.14103149E-02 0.46622863E+02</pdfrwt>
<pdfrwt beam="1">  1        4 0.46000397E-01 0.46622863E+02</pdfrwt>
<totfact> 0.31340468E+05</totfact>
</mgrwt>
</event>
<event>
 4    1  0.2177230E+006  0.5515939E+02  0.7546771E-02  0.1419347E+00
          1   -1    0    0  503    0 -0.00000000000E+00  0.00000000000E+00  0.10158293446E+03  0.10158293446E+03  0.00000000000E+00 0.  1.
         21   -1    0    0  501  502  0.00000000000E+00 -0.00000000000E+00 -0.38583175562E+02  0.38583175562E+02  0.00000000000E+00 0.  1.
         21    1    1    2  503  502  0.42989931378E+02  0.34560437703E+02 -0.16485066644E+01  0.55184016059E+02  0.00000000000E+00 0.  1.
          1    1    1    2  501    0 -0.42989931378E+02 -0.34560437703E+02  0.64648265566E+02  0.84982093966E+02  0.00000000000E+00 0.  1.
<mgrwt>
<rscale>  2 0.55159388E+02</rscale>
<asrwt>0</asrwt>
<pdfrwt beam="2">  1       21 0.59358732E-02 0.55159388E+02</pdfrwt>
<pdfrwt beam="1">  1        1 0.15628144E-01 0.55159388E+02</pdfrwt>
<totfact> 0.66989184E+05</totfact>
</mgrwt>
</event>
<event>
 4    1  0.2177230E+006  0.2497893E+02  0.7546771E-02  0.1661305E+00
         21   -1    0    0  503  502  0.00000000000E+00  0.00000000000E+00  0.17100326586E+04  0.17100326586E+04  0.00000000000E+00 0.  1.
         -3   -1    0    0    0  501 -0.00000000000E+00 -0.00000000000E+00 -0.69493354165E+00  0.69493354165E+00  0.00000000000E+00 0. -1.
         21    1    1    2  503  501  0.40195237752E+00  0.24975692223E+02  0.14441572495E+04  0.14443732578E+04  0.00000000000E+00 0.  1.
         -3    1    1    2    0  502 -0.40195237752E+00 -0.24975692223E+02  0.26518047556E+03  0.26635433427E+03  0.00000000000E+00 0. -1.
<mgrwt>
<rscale>  2 0.24978926E+02</rscale>
<asrwt>0</asrwt>
<pdfrwt beam="1">  1       21 0.26307858E+00 0.24978926E+02</pdfrwt>
<pdfrwt beam="2">  1       -3 0.10691422E-03 0.24978926E+02</pdfrwt>
<totfact> 0.17840068E+05</totfact>
</mgrwt>
</event>
<event>
 4    1  0.2177230E+006  0.2334570E+02  0.7546771E-02  0.1685967E+00
          3   -1    0    0  503    0 -0.00000000000E+00  0.00000000000E+00  0.98710216432E+02  0.98710216432E+02  0.00000000000E+00 0. -1.
         21   -1    0    0  501  502  0.00000000000E+00 -0.00000000000E+00 -0.64460442460E+01  0.64460442460E+01  0.00000000000E+00 0.  1.
         21    1    1    2  503  502 -0.16527601889E+02 -0.16488185976E+02  0.26219028332E+02  0.35106400381E+02  0.00000000000E+00 0.  1.
          3    1    1    2  501    0  0.16527601889E+02  0.16488185976E+02  0.66045143854E+02  0.70049860298E+02  0.00000000000E+00 0. -1.
<mgrwt>
<rscale>  2 0.23345704E+02</rscale>
<asrwt>0</asrwt>
<pdfrwt beam="2">  1       21 0.99169919E-03 0.23345704E+02</pdfrwt>
<pdfrwt beam="1">  1        3 0.15186186E-01 0.23345704E+02</pdfrwt>
<totfact> 0.38091616E+06</totfact>
</mgrwt>
</event>
<event>
 4    1  0.2177230E+006  0.4298300E+02  0.7546771E-02  0.1487341E+00
         21   -1    0    0  503  502  0.00000000000E+00  0.00000000000E+00  0.27547956515E+02  0.27547956515E+02  0.00000000000E+00 0. -1.
          1   -1    0    0  502    0 -0.00000000000E+00 -0.00000000000E+00 -0.25539769585E+03  0.25539769585E+03  0.00000000000E+00 0. -1.
         21    1    1    2  503  501 -0.42295256937E+02 -0.76582868798E+01  0.75610548975E+01  0.43642956688E+02  0.00000000000E+00 0. -1.
          1    1    1    2  501    0  0.42295256937E+02  0.76582868798E+01 -0.23541079424E+03  0.23930269568E+03  0.00000000000E+00 0. -1.
<mgrwt>
<rscale>  2 0.42982998E+02</rscale>
<asrwt>0</asrwt>
<pdfrwt beam="1">  1       21 0.42381471E-02 0.42982998E+02</pdfrwt>
<pdfrwt beam="2">  1        1 0.39291953E-01 0.42982998E+02</pdfrwt>
<totfact> 0.36760018E+05</totfact>
</mgrwt>
</event>
<event>
 4    1  0.2177230E+006  0.2092228E+02  0.7546771E-02  0.1727586E+00
          2   -1    0    0  503    0 -0.00000000000E+00  0.00000000000E+00  0.46395450523E+03  0.46395450523E+03  0.00000000000E+00 0. -1.
         21   -1    0    0  501  502  0.00000000000E+00 -0.00000000000E+00 -0.10003926318E+01  0.10003926318E+01  0.00000000000E+00 0. -1.
         21    1    1    2  503  502  0.14476703431E+02  0.15105189754E+02  0.17603766322E+03  0.17727662161E+03  0.00000000000E+00 0. -1.
          2    1    1    2  501    0 -0.14476703431E+02 -0.15105189754E+02  0.28691644938E+03  0.28767827625E+03  0.00000000000E+00 0. -1.
<mgrwt>
<rscale>  2 0.20922278E+02</rscale>
<asrwt>0</asrwt>
<pdfrwt beam="2">  1       21 0.15390693E-03 0.20922278E+02</pdfrwt>
<pdfrwt beam="1">  1        2 0.71377444E-01 0.20922278E+02</pdfrwt>
<totfact> 0.35349779E+07</totfact>
</mgrwt>
</event>
<event>
 4    1  0.2177230E+006  0.2910295E+02  0.7546771E-02  0.1608221E+00
         -1   -1    0    0    0  501 -0.00000000000E+00  0.00000000000E+00  0.19306899602E+01  0.19306899602E+01  0.00000000000E+00 0.  1.
         21   -1    0    0  501  502  0.00000000000E+00 -0.00000000000E+00 -0.10457805487E+04  0.10457805487E+04  0.00000000000E+00 0.  1.
         21    1    1    2  503  502  0.28579614844E+02 -0.54943204296E+01 -0.92105703359E+03  0.92151670689E+03  0.00000000000E+00 0.  1.
         -1    1    1    2    0  503 -0.28579614844E+02  0.54943204296E+01 -0.12279282512E+03  0.12619453175E+03  0.00000000000E+00 0.  1.
<mgrwt>
<rscale>  2 0.29102954E+02</rscale>
<asrwt>0</asrwt>
<pdfrwt beam="2">  1       21 0.16088942E+00 0.29102954E+02</pdfrwt>
<pdfrwt beam="1">  1       -1 0.29702903E-03 0.29102954E+02</pdfrwt>
<totfact> 0.19996853E+05</totfact>
</mgrwt>
</event>
<event>
 4    1  0.2177230E+006  0.2061506E+02  0.7546771E-02  0.1733366E+00
          3   -1    0    0  503    0 -0.00000000000E+00  0.00000000000E+00  0.85981654152E+02  0.85981654152E+02  0.00000000000E+00 0. -1.
         21   -1    0    0  501  502  0.00000000000E+00 -0.00000000000E+00 -0.12797433289E+02  0.12797433289E+02  0.00000000000E+00 0. -1.
         21    1    1    2  503  502  0.20445377106E+02 -0.26395545596E+01 -0.21015276122E+01  0.20721899324E+02  0.00000000000E+00 0. -1.
          3    1    1    2  501    0 -0.20445377106E+02  0.26395545596E+01  0.75285748476E+02  0.78057188118E+02  0.00000000000E+00 0. -1.
<mgrwt>
<rscale>  2 0.20615060E+02</rscale>
<asrwt>0</asrwt>
<pdfrwt beam="2">  1       21 0.19688359E-02 0.20615060E+02</pdfrwt>
<pdfrwt beam="1">  1        3 0.13227946E-01 0.20615060E+02</pdfrwt>
<totfact> 0.16036925E+06</totfact>
</mgrwt>
</event>
<event>
 4    1  0.2177230E+006  0.2660512E+02  0.7546771E-02  0.1638963E+00
          1   -1    0    0  503    0 -0.00000000000E+00  0.00000000000E+00  0.10301850201E+04  0.10301850201E+04  0.00000000000E+00 0. -1.
         21   -1    0    0  501  502  0.00000000000E+00 -0.00000000000E+00 -0.31917464512E+01  0.31917464512E+01  0.00000000000E+00 0. -1.
         21    1    1    2  503  502 -0.17273872213E+02 -0.20234771863E+02  0.55788798716E+02  0.61807950263E+02  0.00000000000E+00 0. -1.
          1    1    1    2  501    0  0.17273872213E+02  0.20234771863E+02  0.97120447496E+03  0.97156881631E+03  0.00000000000E+00 0. -1.
<mgrwt>
<rscale>  2 0.26605125E+02</rscale>
<asrwt>0</asrwt>
<pdfrwt beam="2">  1       21 0.49103874E-03 0.26605125E+02</pdfrwt>
<pdfrwt beam="1">  1        1 0.15848974E+00 0.26605125E+02</pdfrwt>
<totfact> 0.15837972E+06</totfact>
</mgrwt>
</event>
<event>
 4    1  0.2177230E+006  0.2679086E+02  0.7546771E-02  0.1636536E+00
          3   -1    0    0  503    0 -0.00000000000E+00  0.00000000000E+00  0.11645068597E+01  0.11645068597E+01  0.00000000000E+00 0. -1.
         21   -1    0    0  501  502  0.00000000000E+00 -0.00000000000E+00 -0.72585047216E+03  0.72585047216E+03  0.00000000000E+00 0. -1.
         21    1    1    2  503  502  0.26773814758E+02 -0.95563924705E+00 -0.50352732577E+03  0.50423954446E+03  0.00000000000E+00 0. -1.
          3    1    1    2  501    0 -0.26773814758E+02  0.95563924705E+00 -0.22115863953E+03  0.22277543456E+03  0.00000000000E+00 0. -1.
<mgrwt>
<rscale>  2 0.26790864E+02</rscale>
<asrwt>0</asrwt>
<pdfrwt beam="2">  1       21 0.11166920E+00 0.26790864E+02</pdfrwt>
<pdfrwt beam="1">  1        3 0.17915507E-03 0.26790864E+02</pdfrwt>
<totfact> 0.76381101E+05</totfact>
</mgrwt>
</event>
<event>
 4    1  0.2177230E+006  0.2313454E+02  0.7546771E-02  0.1689339E+00
          2   -1    0    0  502    0 -0.00000000000E+00  0.00000000000E+00  0.31406219318E+03  0.31406219318E+03  0.00000000000E+00 0.  1.
         21   -1    0    0  503  502  0.00000000000E+00 -0.00000000000E+00 -0.17889504185E+01  0.17889504185E+01  0.00000000000E+00 0. -1.
         21    1    1    2  503  501  0.26557973397E+01  0.22981593367E+02  0.12175152975E+03  0.12392998785E+03  0.00000000000E+00 0. -1.
          2    1    1    2  501    0 -0.26557973397E+01 -0.22981593367E+02  0.19052171301E+03  0.19192115574E+03  0.00000000000E+00 0.  1.
<mgrwt>
<rscale>  2 0.23134539E+02</rscale>
<asrwt>0</asrwt>
<pdfrwt beam="2">  1       21 0.27522339E-03 0.23134539E+02</pdfrwt>
<pdfrwt beam="1">  1        2 0.48317217E-01 0.23134539E+02</pdfrwt>
<totfact> 0.23179259E+07</totfact>
</mgrwt>
</event>
<event>
 4    1  0.2177230E+006  0.2049372E+02  0.7546771E-02  0.1735684E+00
          2   -1    0    0  502    0 -0.00000000000E+00  0.00000000000E+00  0.19201260448E+02  0.19201260448E+02  0.00000000000E+00 0.  1.
         21   -1    0    0  503  502  0.00000000000E+00 -0.00000000000E+00 -0.43800223312E+02  0.43800223312E+02  0.00000000000E+00 0.  1.
         21    1    1    2  503  501  0.69667202511E+01  0.19273228923E+02 -0.34587563547E+02  0.40203135404E+02  0.00000000000E+00 0.  1.
          2    1    1    2  501    0 -0.69667202511E+01 -0.19273228923E+02  0.99886006823E+01  0.22798348356E+02  0.00000000000E+00 0.  1.
<mgrwt>
<rscale>  2 0.20493720E+02</rscale>
<asrwt>0</asrwt>
<pdfrwt beam="2">  1       21 0.67384958E-02 0.20493720E+02</pdfrwt>
<pdfrwt beam="1">  1        2 0.29540401E-02 0.20493720E+02</pdfrwt>
<totfact> 0.39778666E+06</totfact>
</mgrwt>
</event>
<event>
 4    1  0.2177230E+006  0.3321301E+02  0.7546771E-02  0.1565067E+00
         21   -1    0    0  503  502  0.00000000000E+00  0.00000000000E+00  0.36245017136E+01  0.36245017136E+01  0.00000000000E+00 0.  1.
         -2   -1    0    0    0  501 -0.00000000000E+00 -0.00000000000E+00 -0.39822689249E+03  0.39822689249E+03  0.00000000000E+00 0. -1.
         21    1    1    2  503  501 -0.96590116787E+01  0.31777473672E+02 -0.99744364234E+02  0.10512869511E+03  0.00000000000E+00 0.  1.
         -2    1    1    2    0  502  0.96590116787E+01 -0.31777473672E+02 -0.29485802654E+03  0.29672269909E+03  0.00000000000E+00 0. -1.
<mgrwt>
<rscale>  2 0.33213015E+02</rscale>
<asrwt>0</asrwt>
<pdfrwt beam="1">  1       21 0.55761532E-03 0.33213015E+02</pdfrwt>
<pdfrwt beam="2">  1       -2 0.61265712E-01 0.33213015E+02</pdfrwt>
<totfact> 0.14673398E+06</totfact>
</mgrwt>
</event>
<event>
 4    1  0.2177230E+006  0.2569855E+02  0.7546771E-02  0.1651166E+00
         21   -1    0    0  501  502  0.00000000000E+00  0.00000000000E+00  0.16266291732E+01  0.16266291732E+01  0.00000000000E+00 0.  1.
          1   -1    0    0  503    0 -0.00000000000E+00 -0.00000000000E+00 -0.10964127425E+04  0.10964127425E+04  0.00000000000E+00 0. -1.
         21    1    1    2  503  502  0.68422841764E+01 -0.24770927713E+02 -0.11172626882E+03  0.11464368651E+03  0.00000000000E+00 0.  1.
          1    1    1    2  501    0 -0.68422841764E+01  0.24770927713E+02 -0.98305984447E+03  0.98339568513E+03  0.00000000000E+00 0. -1.
<mgrwt>
<rscale>  2 0.25698555E+02</rscale>
<asrwt>0</asrwt>
<pdfrwt beam="1">  1       21 0.25025087E-03 0.25698555E+02</pdfrwt>
<pdfrwt beam="2">  1        1 0.16867873E+00 0.25698555E+02</pdfrwt>
<totfact> 0.38292129E+06</totfact>
</mgrwt>
</event>
<event>
 4    1  0.2177230E+006  0.2135937E+02  0.7546771E-02  0.1719573E+00
         21   -1    0    0  503  502  0.00000000000E+00  0.00000000000E+00  0.61737481338E+02  0.61737481338E+02  0.00000000000E+00 0.  1.
          3   -1    0    0  502    0 -0.00000000000E+00 -0.00000000000E+00 -0.20152686168E+02  0.20152686168E+02  0.00000000000E+00 0. -1.
         21    1    1    2  503  501 -0.21351591329E+02  0.57655498405E+00  0.53376897174E+02  0.57491877860E+02  0.00000000000E+00 0.  1.
          3    1    1    2  501    0  0.21351591329E+02 -0.57655498405E+00 -0.11792102005E+02  0.24398289646E+02  0.00000000000E+00 0. -1.
<mgrwt>
<rscale>  2 0.21359374E+02</rscale>
<asrwt>0</asrwt>
<pdfrwt beam="1">  1       21 0.94980740E-02 0.21359374E+02</pdfrwt>
<pdfrwt beam="2">  1        3 0.31004133E-02 0.21359374E+02</pdfrwt>
<totfact> 0.12408274E+06</totfact>
</mgrwt>
</event>
<event>
 4    1  0.2177230E+006  0.3390606E+02  0.7546771E-02  0.1558535E+00
         -2   -1    0    0    0  501 -0.00000000000E+00  0.00000000000E+00  0.42865909671E+01  0.42865909671E+01  0.00000000000E+00 0. -1.
         21   -1    0    0  501  502  0.00000000000E+00 -0.00000000000E+00 -0.38186246691E+03  0.38186246691E+03  0.00000000000E+00 0.  1.
         21    1    1    2  503  502 -0.26898423386E+02 -0.20642078917E+02 -0.29412937573E+03  0.29607720322E+03  0.00000000000E+00 0.  1.
         -2    1    1    2    0  503  0.26898423386E+02  0.20642078917E+02 -0.83446500220E+02  0.90071854658E+02  0.00000000000E+00 0. -1.
<mgrwt>
<rscale>  2 0.33906056E+02</rscale>
<asrwt>0</asrwt>
<pdfrwt beam="2">  1       21 0.58748075E-01 0.33906056E+02</pdfrwt>
<pdfrwt beam="1">  1       -2 0.65947549E-03 0.33906056E+02</pdfrwt>
<totfact> 0.64656215E+05</totfact>
</mgrwt>
</event>
<event>
 4    1  0.2177230E+006  0.2076407E+02  0.7546771E-02  0.1730547E+00
         21   -1    0    0  503  502  0.00000000000E+00  0.00000000000E+00  0.39356642371E+02  0.39356642371E+02  0.00000000000E+00 0. -1.
         -3   -1    0    0    0  501 -0.00000000000E+00 -0.00000000000E+00 -0.15625653693E+02  0.15625653693E+02  0.00000000000E+00 0.  1.
         21    1    1    2  503  501 -0.20320459643E+02  0.42691312922E+01  0.26895843055E+02  0.33978418676E+02  0.00000000000E+00 0. -1.
         -3    1    1    2    0  502  0.20320459643E+02 -0.42691312922E+01 -0.31648543781E+01  0.21003877388E+02  0.00000000000E+00 0.  1.
<mgrwt>
<rscale>  2 0.20764069E+02</rscale>
<asrwt>0</asrwt>
<pdfrwt beam="1">  1       21 0.60548680E-02 0.20764069E+02</pdfrwt>
<pdfrwt beam="2">  1       -3 0.24039467E-02 0.20764069E+02</pdfrwt>
<totfact> 0.36958527E+06</totfact>
</mgrwt>
</event>
<event>
 4    1  0.2177230E+006  0.2575781E+02  0.7546771E-02  0.1650350E+00
         21   -1    0    0  503  502  0.00000000000E+00  0.00000000000E+00  0.36585119951E+02  0.36585119951E+02  0.00000000000E+00 0.  1.
         -1   -1    0    0    0  501 -0.00000000000E+00 -0.00000000000E+00 -0.19317783834E+02  0.19317783834E+02  0.00000000000E+00 0.  1.
         21    1    1    2  503  501 -0.97256138291E+01  0.23851148964E+02  0.15550542903E+02  0.30087942034E+02  0.00000000000E+00 0.  1.
         -1    1    1    2    0  502  0.97256138291E+01 -0.23851148964E+02  0.17167932146E+01  0.25814961751E+02  0.00000000000E+00 0.  1.
<mgrwt>
<rscale>  2 0.25757812E+02</rscale>
<asrwt>0</asrwt>
<pdfrwt beam="1">  1       21 0.56284800E-02 0.25757812E+02</pdfrwt>
<pdfrwt beam="2">  1       -1 0.29719667E-02 0.25757812E+02</pdfrwt>
<totfact> 0.49382605E+06</totfact>
</mgrwt>
</event>
<event>
 4    1  0.2177230E+006  0.2756021E+02  0.7546771E-02  0.1626737E+00
         -1   -1    0    0    0  501 -0.00000000000E+00  0.00000000000E+00  0.71909192805E+01  0.71909192805E+01  0.00000000000E+00 0.  1.
         21   -1    0    0  503  502  0.00000000000E+00 -0.00000000000E+00 -0.12960435252E+03  0.12960435252E+03  0.00000000000E+00 0.  1.
         21    1    1    2  503  501 -0.26841250398E+02 -0.62539949101E+01 -0.90625139559E+02  0.94723181404E+02  0.00000000000E+00 0.  1.
         -1    1    1    2    0  502  0.26841250398E+02  0.62539949101E+01 -0.31788293685E+02  0.42072090400E+02  0.00000000000E+00 0.  1.
<mgrwt>
<rscale>  2 0.27560210E+02</rscale>
<asrwt>0</asrwt>
<pdfrwt beam="2">  1       21 0.19939129E-01 0.27560210E+02</pdfrwt>
<pdfrwt beam="1">  1       -1 0.11062954E-02 0.27560210E+02</pdfrwt>
<totfact> 0.23364113E+06</totfact>
</mgrwt>
</event>
<event>
 4    1  0.2177230E+006  0.2249866E+02  0.7546771E-02  0.1699768E+00
         21   -1    0    0  501  502  0.00000000000E+00  0.00000000000E+00  0.16023319703E+01  0.16023319703E+01  0.00000000000E+00 0.  1.
          2   -1    0    0  503    0 -0.00000000000E+00 -0.00000000000E+00 -0.36741620541E+03  0.36741620541E+03  0.00000000000E+00 0.  1.
         21    1    1    2  503  502 -0.22287120308E+02  0.30780172061E+01 -0.11382315508E+03  0.11602543063E+03  0.00000000000E+00 0.  1.
          2    1    1    2  501    0  0.22287120308E+02 -0.30780172061E+01 -0.25199071837E+03  0.25299310675E+03  0.00000000000E+00 0.  1.
<mgrwt>
<rscale>  2 0.22498665E+02</rscale>
<asrwt>0</asrwt>
<pdfrwt beam="1">  1       21 0.24651263E-03 0.22498665E+02</pdfrwt>
<pdfrwt beam="2">  1        2 0.56525567E-01 0.22498665E+02</pdfrwt>
<totfact> 0.23108526E+07</totfact>
</mgrwt>
</event>
<event>
 4    1  0.2177230E+006  0.2112387E+02  0.7546771E-02  0.1723860E+00
         -3   -1    0    0    0  501 -0.00000000000E+00  0.00000000000E+00  0.10058408260E+02  0.10058408260E+02  0.00000000000E+00 0. -1.
         21   -1    0    0  501  502  0.00000000000E+00 -0.00000000000E+00 -0.88798962064E+02  0.88798962064E+02  0.00000000000E+00 0. -1.
         21    1    1    2  503  502  0.21117097382E+02  0.53471349891E+00 -0.74336126150E+02  0.77279216943E+02  0.00000000000E+00 0. -1.
         -3    1    1    2    0  503 -0.21117097382E+02 -0.53471349891E+00 -0.44044276539E+01  0.21578153381E+02  0.00000000000E+00 0. -1.
<mgrwt>
<rscale>  2 0.21123866E+02</rscale>
<asrwt>0</asrwt>
<pdfrwt beam="2">  1       21 0.13661379E-01 0.21123866E+02</pdfrwt>
<pdfrwt beam="1">  1       -3 0.15474474E-02 0.21123866E+02</pdfrwt>
<totfact> 0.18547042E+06</totfact>
</mgrwt>
</event>
<event>
 4    1  0.2177230E+006  0.2703101E+02  0.7546771E-02  0.1633434E+00
          1   -1    0    0  503    0 -0.00000000000E+00  0.00000000000E+00  0.14719062052E+04  0.14719062052E+04  0.00000000000E+00 0. -1.
         21   -1    0    0  501  502  0.00000000000E+00 -0.00000000000E+00 -0.22325048911E+01  0.22325048911E+01  0.00000000000E+00 0. -1.
         21    1    1    2  503  502  0.10984657062E+02  0.24698436680E+02  0.84859351549E+02  0.89060569337E+02  0.00000000000E+00 0. -1.
          1    1    1    2  501    0 -0.10984657062E+02 -0.24698436680E+02  0.13848143488E+04  0.13850781408E+04  0.00000000000E+00 0. -1.
<mgrwt>
<rscale>  2 0.27031009E+02</rscale>
<asrwt>0</asrwt>
<pdfrwt beam="2">  1       21 0.34346347E-03 0.27031009E+02</pdfrwt>
<pdfrwt beam="1">  1        1 0.22644633E+00 0.27031009E+02</pdfrwt>
<totfact> 0.14173498E+06</totfact>
</mgrwt>
</event>
<event>
 4    1  0.2177230E+006  0.2053693E+02  0.7546771E-02  0.1734857E+00
         21   -1    0    0  501  502  0.00000000000E+00  0.00000000000E+00  0.18760587235E+03  0.18760587235E+03  0.00000000000E+00 0. -1.
         -2   -1    0    0    0  501 -0.00000000000E+00 -0.00000000000E+00 -0.65426821110E+01  0.65426821110E+01  0.00000000000E+00 0.  1.
         21    1    1    2  503  502 -0.20523742369E+02  0.73574224646E+00  0.16917900152E+03  0.17042094904E+03  0.00000000000E+00 0. -1.
         -2    1    1    2    0  503  0.20523742369E+02 -0.73574224646E+00  0.11884188724E+02  0.23727605423E+02  0.00000000000E+00 0.  1.
<mgrwt>
<rscale>  2 0.20536926E+02</rscale>
<asrwt>0</asrwt>
<pdfrwt beam="1">  1       21 0.28862438E-01 0.20536926E+02</pdfrwt>
<pdfrwt beam="2">  1       -2 0.10065666E-02 0.20536926E+02</pdfrwt>
<totfact> 0.12729991E+06</totfact>
</mgrwt>
</event>
<event>
 4    1  0.2177230E+006  0.2515712E+02  0.7546771E-02  0.1658755E+00
         21   -1    0    0  503  502  0.00000000000E+00  0.00000000000E+00  0.10926299027E+02  0.10926299027E+02  0.00000000000E+00 0. -1.
          1   -1    0    0  502    0 -0.00000000000E+00 -0.00000000000E+00 -0.10558287502E+03  0.10558287502E+03  0.00000000000E+00 0.  1.
         21    1    1    2  503  501 -0.16531719460E+02  0.18962665710E+02 -0.81891435415E+01  0.26456426650E+02  0.00000000000E+00 0. -1.
          1    1    1    2  501    0  0.16531719460E+02 -0.18962665710E+02 -0.86467432452E+02  0.90052747398E+02  0.00000000000E+00 0.  1.
<mgrwt>
<rscale>  2 0.25157115E+02</rscale>
<asrwt>0</asrwt>
<pdfrwt beam="1">  1       21 0.16809691E-02 0.25157115E+02</pdfrwt>
<pdfrwt beam="2">  1        1 0.16243519E-01 0.25157115E+02</pdfrwt>
<totfact> 0.40932278E+06</totfact>
</mgrwt>
</event>
<event>
 4    1  0.2177230E+006  0.2140135E+02  0.7546771E-02  0.1718816E+00
         21   -1    0    0  503  502  0.00000000000E+00  0.00000000000E+00  0.45395563294E+02  0.45395563294E+02  0.00000000000E+00 0. -1.
         -2   -1    0    0    0  501 -0.00000000000E+00 -0.00000000000E+00 -0.18275002172E+02  0.18275002172E+02  0.00000000000E+00 0.  1.
         21    1    1    2  503  501 -0.21390856246E+02  0.66999117536E+00  0.34866342850E+02  0.40910627994E+02  0.00000000000E+00 0. -1.
         -2    1    1    2    0  502  0.21390856246E+02 -0.66999117536E+00 -0.77457817283E+01  0.22759937471E+02  0.00000000000E+00 0.  1.
<mgrwt>
<rscale>  2 0.21401346E+02</rscale>
<asrwt>0</asrwt>
<pdfrwt beam="1">  1       21 0.69839328E-02 0.21401346E+02</pdfrwt>
<pdfrwt beam="2">  1       -2 0.28115388E-02 0.21401346E+02</pdfrwt>
<totfact> 0.35195005E+06</totfact>
</mgrwt>
</event>
<event>
 4    1  0.2177230E+006  0.2515328E+02  0.7546771E-02  0.1658810E+00
         21   -1    0    0  501  502  0.00000000000E+00  0.00000000000E+00  0.35253876218E+03  0.35253876218E+03  0.00000000000E+00 0. -1.
         -3   -1    0    0    0  501 -0.00000000000E+00 -0.00000000000E+00 -0.41265502415E+01  0.41265502415E+01  0.00000000000E+00 0.  1.
         21    1    1    2  503  502  0.87763250106E+01 -0.23572518028E+02  0.30826365978E+03  0.30928816891E+03  0.00000000000E+00 0. -1.
         -3    1    1    2    0  503 -0.87763250106E+01  0.23572518028E+02  0.40148552157E+02  0.47377143510E+02  0.00000000000E+00 0.  1.
<mgrwt>
<rscale>  2 0.25153280E+02</rscale>
<asrwt>0</asrwt>
<pdfrwt beam="1">  1       21 0.54236709E-01 0.25153280E+02</pdfrwt>
<pdfrwt beam="2">  1       -3 0.63485416E-03 0.25153280E+02</pdfrwt>
<totfact> 0.57902835E+05</totfact>
</mgrwt>
</event>
<event>
 4    1  0.2177230E+006  0.3307867E+02  0.7546771E-02  0.1566356E+00
         21   -1    0    0  503  502  0.00000000000E+00  0.00000000000E+00  0.84890264661E+02  0.84890264661E+02  0.00000000000E+00 0. -1.
         -4   -1    0    0    0  501 -0.00000000000E+00 -0.00000000000E+00 -0.13132670493E+02  0.13132670493E+02  0.00000000000E+00 0.  1.
         21    1    1    2  503  501  0.29095053625E+02 -0.15737727862E+02  0.29210386032E+02  0.44129863764E+02  0.00000000000E+00 0. -1.
         -4    1    1    2    0  502 -0.29095053625E+02  0.15737727862E+02  0.42547208136E+02  0.53893071390E+02  0.00000000000E+00 0.  1.
<mgrwt>
<rscale>  2 0.33078667E+02</rscale>
<asrwt>0</asrwt>
<pdfrwt beam="1">  1       21 0.13060040E-01 0.33078667E+02</pdfrwt>
<pdfrwt beam="2">  1       -4 0.20204109E-02 0.33078667E+02</pdfrwt>
<totfact> 0.13783311E+06</totfact>
</mgrwt>
</event>
<event>
 4    1  0.2177230E+006  0.3414020E+02  0.7546771E-02  0.1556371E+00
         21   -1    0    0  503  502  0.00000000000E+00  0.00000000000E+00  0.10112149295E+03  0.10112149295E+03  0.00000000000E+00 0.  1.
         -4   -1    0    0    0  501 -0.00000000000E+00 -0.00000000000E+00 -0.15808864699E+02  0.15808864699E+02  0.00000000000E+00 0.  1.
         21    1    1    2  503  501 -0.26455998843E+02  0.21578537151E+02  0.73086224591E+02  0.80666903779E+02  0.00000000000E+00 0.  1.
         -4    1    1    2    0  502  0.26455998843E+02 -0.21578537151E+02  0.12226403664E+02  0.36263453875E+02  0.00000000000E+00 0.  1.
<mgrwt>
<rscale>  2 0.34140198E+02</rscale>
<asrwt>0</asrwt>
<pdfrwt beam="1">  1       21 0.15557152E-01 0.34140198E+02</pdfrwt>
<pdfrwt beam="2">  1       -4 0.24321331E-02 0.34140198E+02</pdfrwt>
<totfact> 0.78116189E+05</totfact>
</mgrwt>
</event>
<event>
 4    1  0.2177230E+006  0.4025178E+02  0.7546771E-02  0.1506367E+00
          3   -1    0    0  503    0 -0.00000000000E+00  0.00000000000E+00  0.42704343020E+03  0.42704343020E+03  0.00000000000E+00 0.  1.
         21   -1    0    0  501  502  0.00000000000E+00 -0.00000000000E+00 -0.24718419892E+03  0.24718419892E+03  0.00000000000E+00 0.  1.
         21    1    1    2  503  502 -0.20850460601E+02  0.34430565780E+02 -0.24458703067E+03  0.24787702826E+03  0.00000000000E+00 0.  1.
          3    1    1    2  501    0  0.20850460601E+02 -0.34430565780E+02  0.42444626195E+03  0.42635060086E+03  0.00000000000E+00 0.  1.
<mgrwt>
<rscale>  2 0.40251777E+02</rscale>
<asrwt>0</asrwt>
<pdfrwt beam="2">  1       21 0.38028338E-01 0.40251777E+02</pdfrwt>
<pdfrwt beam="1">  1        3 0.65698989E-01 0.40251777E+02</pdfrwt>
<totfact> 0.74158687E+02</totfact>
</mgrwt>
</event>
<event>
 4    1  0.2177230E+006  0.5916924E+02  0.7546771E-02  0.1401351E+00
         21   -1    0    0  503  502  0.00000000000E+00  0.00000000000E+00  0.33311805204E+02  0.33311805204E+02  0.00000000000E+00 0. -1.
          2   -1    0    0  502    0 -0.00000000000E+00 -0.00000000000E+00 -0.11769186879E+04  0.11769186879E+04  0.00000000000E+00 0. -1.
         21    1    1    2  503  501  0.13706787186E+02 -0.57559736369E+02  0.56619527194E+01  0.59439523673E+02  0.00000000000E+00 0. -1.
          2    1    1    2  501    0 -0.13706787186E+02  0.57559736369E+02 -0.11492688354E+04  0.11507909694E+04  0.00000000000E+00 0. -1.
<mgrwt>
<rscale>  2 0.59169243E+02</rscale>
<asrwt>0</asrwt>
<pdfrwt beam="1">  1       21 0.51248935E-02 0.59169243E+02</pdfrwt>
<pdfrwt beam="2">  1        2 0.18106440E+00 0.59169243E+02</pdfrwt>
<totfact> 0.67859576E+04</totfact>
</mgrwt>
</event>
<event>
 4    1  0.2177230E+006  0.2093130E+02  0.7546771E-02  0.1727418E+00
         -4   -1    0    0    0  501 -0.00000000000E+00  0.00000000000E+00  0.37985329356E+03  0.37985329356E+03  0.00000000000E+00 0.  1.
         21   -1    0    0  501  502  0.00000000000E+00 -0.00000000000E+00 -0.25913869400E+02  0.25913869400E+02  0.00000000000E+00 0.  1.
         21    1    1    2  503  502  0.15634622480E+01 -0.20872822984E+02 -0.21347446195E+02  0.29897033508E+02  0.00000000000E+00 0.  1.
         -4    1    1    2    0  503 -0.15634622480E+01  0.20872822984E+02  0.37528687036E+03  0.37587012945E+03  0.00000000000E+00 0.  1.
<mgrwt>
<rscale>  2 0.20931296E+02</rscale>
<asrwt>0</asrwt>
<pdfrwt beam="2">  1       21 0.39867494E-02 0.20931296E+02</pdfrwt>
<pdfrwt beam="1">  1       -4 0.58438964E-01 0.20931296E+02</pdfrwt>
<totfact> 0.30491489E+04</totfact>
</mgrwt>
</event>
<event>
 4    1  0.2177230E+006  0.2867118E+02  0.7546771E-02  0.1613259E+00
         21   -1    0    0  501  502  0.00000000000E+00  0.00000000000E+00  0.39367132187E+00  0.39367132187E+00  0.00000000000E+00 0. -1.
          2   -1    0    0  503    0 -0.00000000000E+00 -0.00000000000E+00 -0.22766118652E+04  0.22766118652E+04  0.00000000000E+00 0. -1.
         21    1    1    2  503  502 -0.19253363013E+02  0.21244876434E+02 -0.81052351797E+03  0.81103046178E+03  0.00000000000E+00 0. -1.
          2    1    1    2  501    0  0.19253363013E+02 -0.21244876434E+02 -0.14656946759E+04  0.14659750747E+04  0.00000000000E+00 0. -1.
<mgrwt>
<rscale>  2 0.28671183E+02</rscale>
<asrwt>0</asrwt>
<pdfrwt beam="1">  1       21 0.60564204E-04 0.28671183E+02</pdfrwt>
<pdfrwt beam="2">  1        2 0.35025154E+00 0.28671183E+02</pdfrwt>
<totfact> 0.15155018E+07</totfact>
</mgrwt>
</event>
<event>
 4    1  0.2177230E+006  0.2045277E+02  0.7546771E-02  0.1736471E+00
         -2   -1    0    0    0  501 -0.00000000000E+00  0.00000000000E+00  0.68200522967E+00  0.68200522967E+00  0.00000000000E+00 0.  1.
         21   -1    0    0  503  502  0.00000000000E+00 -0.00000000000E+00 -0.83041672058E+03  0.83041672058E+03  0.00000000000E+00 0. -1.
         21    1    1    2  503  501  0.18968932088E+02 -0.76482212163E+01 -0.62731886225E+03  0.62765218919E+03  0.00000000000E+00 0. -1.
         -2    1    1    2    0  502 -0.18968932088E+02  0.76482212163E+01 -0.20241585311E+03  0.20344653662E+03  0.00000000000E+00 0.  1.
<mgrwt>
<rscale>  2 0.20452767E+02</rscale>
<asrwt>0</asrwt>
<pdfrwt beam="2">  1       21 0.12775696E+00 0.20452767E+02</pdfrwt>
<pdfrwt beam="1">  1       -2 0.10492344E-03 0.20452767E+02</pdfrwt>
<totfact> 0.12866690E+06</totfact>
</mgrwt>
</event>
<event>
 4    1  0.2177230E+006  0.2340515E+02  0.7546771E-02  0.1685026E+00
         -4   -1    0    0    0  501 -0.00000000000E+00  0.00000000000E+00  0.25952040780E+03  0.25952040780E+03  0.00000000000E+00 0.  1.
         21   -1    0    0  501  502  0.00000000000E+00 -0.00000000000E+00 -0.21433593458E+01  0.21433593458E+01  0.00000000000E+00 0.  1.
         21    1    1    2  503  502 -0.22209739240E+02  0.73843330905E+01  0.11256834512E+03  0.11497579404E+03  0.00000000000E+00 0.  1.
         -4    1    1    2    0  503  0.22209739240E+02 -0.73843330905E+01  0.14480870333E+03  0.14668797310E+03  0.00000000000E+00 0.  1.
<mgrwt>
<rscale>  2 0.23405147E+02</rscale>
<asrwt>0</asrwt>
<pdfrwt beam="2">  1       21 0.32974780E-03 0.23405147E+02</pdfrwt>
<pdfrwt beam="1">  1       -4 0.39926192E-01 0.23405147E+02</pdfrwt>
<totfact> 0.28598598E+06</totfact>
</mgrwt>
</event>
<event>
 4    1  0.2177230E+006  0.2739929E+02  0.7546771E-02  0.1628754E+00
         21   -1    0    0  503  502  0.00000000000E+00  0.00000000000E+00  0.31158698704E+03  0.31158698704E+03  0.00000000000E+00 0.  1.
         -4   -1    0    0    0  501 -0.00000000000E+00 -0.00000000000E+00 -0.23188102465E+02  0.23188102465E+02  0.00000000000E+00 0.  1.
         21    1    1    2  503  501 -0.18462601460E+02  0.20244837815E+02  0.30265238237E+03  0.30389008813E+03  0.00000000000E+00 0.  1.
         -4    1    1    2    0  502  0.18462601460E+02 -0.20244837815E+02 -0.14253497790E+02  0.30885001377E+02  0.00000000000E+00 0.  1.
<mgrwt>
<rscale>  2 0.27399290E+02</rscale>
<asrwt>0</asrwt>
<pdfrwt beam="1">  1       21 0.47936456E-01 0.27399290E+02</pdfrwt>
<pdfrwt beam="2">  1       -4 0.35674006E-02 0.27399290E+02</pdfrwt>
<totfact> 0.52582055E+04</totfact>
</mgrwt>
</event>
<event>
 4    1  0.2177230E+006  0.2527593E+02  0.7546771E-02  0.1657070E+00
         21   -1    0    0  503  502  0.00000000000E+00  0.00000000000E+00  0.29833433025E+01  0.29833433025E+01  0.00000000000E+00 0.  1.
          1   -1    0    0  502    0 -0.00000000000E+00 -0.00000000000E+00 -0.22862686782E+03  0.22862686782E+03  0.00000000000E+00 0.  1.
         21    1    1    2  503  501 -0.20564041138E+02  0.14696693356E+02 -0.83677465275E+02  0.87411616954E+02  0.00000000000E+00 0.  1.
          1    1    1    2  501    0  0.20564041138E+02 -0.14696693356E+02 -0.14196605925E+03  0.14419859417E+03  0.00000000000E+00 0.  1.
<mgrwt>
<rscale>  2 0.25275929E+02</rscale>
<asrwt>0</asrwt>
<pdfrwt beam="1">  1       21 0.45897572E-03 0.25275929E+02</pdfrwt>
<pdfrwt beam="2">  1        1 0.35173377E-01 0.25275929E+02</pdfrwt>
<totfact> 0.11537265E+07</totfact>
</mgrwt>
</event>
<event>
 4    1  0.2177230E+006  0.2663101E+02  0.7546771E-02  0.1638623E+00
         -1   -1    0    0    0  501 -0.00000000000E+00  0.00000000000E+00  0.33691419701E+02  0.33691419701E+02  0.00000000000E+00 0.  1.
         21   -1    0    0  503  502  0.00000000000E+00 -0.00000000000E+00 -0.15973158405E+03  0.15973158405E+03  0.00000000000E+00 0.  1.
         21    1    1    2  503  501  0.17663255446E+02 -0.19930376317E+02 -0.15313399371E+03  0.15543239856E+03  0.00000000000E+00 0.  1.
         -1    1    1    2    0  502 -0.17663255446E+02  0.19930376317E+02  0.27093829361E+02  0.37990605188E+02  0.00000000000E+00 0.  1.
<mgrwt>
<rscale>  2 0.26631006E+02</rscale>
<asrwt>0</asrwt>
<pdfrwt beam="2">  1       21 0.24574090E-01 0.26631006E+02</pdfrwt>
<pdfrwt beam="1">  1       -1 0.51832953E-02 0.26631006E+02</pdfrwt>
<totfact> 0.19060824E+05</totfact>
</mgrwt>
</event>
<event>
 4    1  0.2177230E+006  0.2075350E+02  0.7546771E-02  0.1730746E+00
          2   -1    0    0  503    0 -0.00000000000E+00  0.00000000000E+00  0.13182906650E+04  0.13182906650E+04  0.00000000000E+00 0.  1.
         21   -1    0    0  501  502  0.00000000000E+00 -0.00000000000E+00 -0.61923242465E+00  0.61923242465E+00  0.00000000000E+00 0.  1.
         21    1    1    2  503  502  0.44633893424E+01 -0.20267849182E+02  0.20559083566E+03  0.20663566793E+03  0.00000000000E+00 0.  1.
          2    1    1    2  501    0 -0.44633893424E+01  0.20267849182E+02  0.11120805969E+04  0.11122742295E+04  0.00000000000E+00 0.  1.
<mgrwt>
<rscale>  2 0.20753495E+02</rscale>
<asrwt>0</asrwt>
<pdfrwt beam="2">  1       21 0.95267582E-04 0.20753495E+02</pdfrwt>
<pdfrwt beam="1">  1        2 0.20281170E+00 0.20753495E+02</pdfrwt>
<totfact> 0.20938283E+07</totfact>
</mgrwt>
</event>
<event>
 4    1  0.2177230E+006  0.2010433E+02  0.7546771E-02  0.1743261E+00
         21   -1    0    0  503  502  0.00000000000E+00  0.00000000000E+00  0.43211435379E+01  0.43211435379E+01  0.00000000000E+00 0.  1.
         -2   -1    0    0    0  501 -0.00000000000E+00 -0.00000000000E+00 -0.10055354365E+03  0.10055354365E+03  0.00000000000E+00 0.  1.
         21    1    1    2  503  501  0.10267286756E+02 -0.17284880810E+02 -0.34263907215E+02  0.39726560631E+02  0.00000000000E+00 0.  1.
         -2    1    1    2    0  502 -0.10267286756E+02  0.17284880810E+02 -0.61968492901E+02  0.65148126561E+02  0.00000000000E+00 0.  1.
<mgrwt>
<rscale>  2 0.20104335E+02</rscale>
<asrwt>0</asrwt>
<pdfrwt beam="1">  1       21 0.66479128E-03 0.20104335E+02</pdfrwt>
<pdfrwt beam="2">  1       -2 0.15469777E-01 0.20104335E+02</pdfrwt>
<totfact> 0.10865571E+07</totfact>
</mgrwt>
</event>
<event>
 4    1  0.2177230E+006  0.2336207E+02  0.7546771E-02  0.1685707E+00
         21   -1    0    0  501  502  0.00000000000E+00  0.00000000000E+00  0.15418603004E+01  0.15418603004E+01  0.00000000000E+00 0.  1.
         -3   -1    0    0    0  501 -0.00000000000E+00 -0.00000000000E+00 -0.36976826698E+03  0.36976826698E+03  0.00000000000E+00 0.  1.
         21    1    1    2  503  502 -0.12330430357E+02  0.19843054271E+02 -0.14574940134E+03  0.14760987198E+03  0.00000000000E+00 0.  1.
         -3    1    1    2    0  503  0.12330430357E+02 -0.19843054271E+02 -0.22247700534E+03  0.22370025530E+03  0.00000000000E+00 0.  1.
<mgrwt>
<rscale>  2 0.23362070E+02</rscale>
<asrwt>0</asrwt>
<pdfrwt beam="1">  1       21 0.23720936E-03 0.23362070E+02</pdfrwt>
<pdfrwt beam="2">  1       -3 0.56887406E-01 0.23362070E+02</pdfrwt>
<totfact> 0.30444163E+06</totfact>
</mgrwt>
</event>
<event>
 4    1  0.2177230E+006  0.2139391E+02  0.7546771E-02  0.1718950E+00
         -1   -1    0    0    0  501 -0.00000000000E+00  0.00000000000E+00  0.47172893196E+03  0.47172893196E+03  0.00000000000E+00 0.  1.
         21   -1    0    0  503  502  0.00000000000E+00 -0.00000000000E+00 -0.19357525989E+03  0.19357525989E+03  0.00000000000E+00 0.  1.
         21    1    1    2  503  501  0.15387616378E+02  0.14863398818E+02 -0.19274053485E+03  0.19392424587E+03  0.00000000000E+00 0.  1.
         -1    1    1    2    0  502 -0.15387616378E+02 -0.14863398818E+02  0.47089420692E+03  0.47137994598E+03  0.00000000000E+00 0.  1.
<mgrwt>
<rscale>  2 0.21393909E+02</rscale>
<asrwt>0</asrwt>
<pdfrwt beam="2">  1       21 0.29780809E-01 0.21393909E+02</pdfrwt>
<pdfrwt beam="1">  1       -1 0.72573681E-01 0.21393909E+02</pdfrwt>
<totfact> 0.21832151E+03</totfact>
</mgrwt>
</event>
<event>
 4    1  0.2177230E+006  0.3597751E+02  0.7546771E-02  0.1540088E+00
         21   -1    0    0  503  502  0.00000000000E+00  0.00000000000E+00  0.26724792400E+01  0.26724792400E+01  0.00000000000E+00 0.  1.
          2   -1    0    0  502    0 -0.00000000000E+00 -0.00000000000E+00 -0.12675104003E+04  0.12675104003E+04  0.00000000000E+00 0. -1.
         21    1    1    2  503  501 -0.22343780876E+02  0.28198164076E+02 -0.13320190584E+03  0.13797510182E+03  0.00000000000E+00 0.  1.
          2    1    1    2  501    0  0.22343780876E+02 -0.28198164076E+02 -0.11316360152E+04  0.11322077777E+04  0.00000000000E+00 0. -1.
<mgrwt>
<rscale>  2 0.35977507E+02</rscale>
<asrwt>0</asrwt>
<pdfrwt beam="1">  1       21 0.41115093E-03 0.35977507E+02</pdfrwt>
<pdfrwt beam="2">  1        2 0.19500147E+00 0.35977507E+02</pdfrwt>
<totfact> 0.29759660E+06</totfact>
</mgrwt>
</event>
<event>
 4    1  0.2177230E+006  0.2367043E+02  0.7546771E-02  0.1680868E+00
         -4   -1    0    0    0  501 -0.00000000000E+00  0.00000000000E+00  0.92780935001E+03  0.92780935001E+03  0.00000000000E+00 0.  1.
         21   -1    0    0  501  502  0.00000000000E+00 -0.00000000000E+00 -0.52650416324E+01  0.52650416324E+01  0.00000000000E+00 0.  1.
         21    1    1    2  503  502  0.11168170562E+02  0.20870101937E+02  0.22304756054E+02  0.32523704143E+02  0.00000000000E+00 0.  1.
         -4    1    1    2    0  503 -0.11168170562E+02 -0.20870101937E+02  0.90023955232E+03  0.90055068750E+03  0.00000000000E+00 0.  1.
<mgrwt>
<rscale>  2 0.23670429E+02</rscale>
<asrwt>0</asrwt>
<pdfrwt beam="2">  1       21 0.81000714E-03 0.23670429E+02</pdfrwt>
<pdfrwt beam="1">  1       -4 0.14273977E+00 0.23670429E+02</pdfrwt>
<totfact> 0.52718834E+04</totfact>
</mgrwt>
</event>
<event>
 4    1  0.2177230E+006  0.3271780E+02  0.7546771E-02  0.1569854E+00
         -2   -1    0    0    0  501 -0.00000000000E+00  0.00000000000E+00  0.50937078005E+03  0.50937078005E+03  0.00000000000E+00 0.  1.
         21   -1    0    0  503  502  0.00000000000E+00 -0.00000000000E+00 -0.50597203837E+01  0.50597203837E+01  0.00000000000E+00 0. -1.
         21    1    1    2  503  501 -0.13053092019E+02 -0.30001185494E+02  0.55481489484E+02  0.64410014886E+02  0.00000000000E+00 0. -1.
         -2    1    1    2    0  502  0.13053092019E+02  0.30001185494E+02  0.44882957018E+03  0.45002048555E+03  0.00000000000E+00 0.  1.
<mgrwt>
<rscale>  2 0.32717799E+02</rscale>
<asrwt>0</asrwt>
<pdfrwt beam="2">  1       21 0.77841892E-03 0.32717799E+02</pdfrwt>
<pdfrwt beam="1">  1       -2 0.78364695E-01 0.32717799E+02</pdfrwt>
<totfact> 0.53362227E+05</totfact>
</mgrwt>
</event>
<event>
 4    1  0.2177230E+006  0.2818124E+02  0.7546771E-02  0.1619109E+00
          2   -1    0    0  502    0 -0.00000000000E+00  0.00000000000E+00  0.12486029973E+03  0.12486029973E+03  0.00000000000E+00 0. -1.
         21   -1    0    0  503  502  0.00000000000E+00 -0.00000000000E+00 -0.61319928104E+03  0.61319928104E+03  0.00000000000E+00 0. -1.
         21    1    1    2  503  501 -0.28157588931E+02 -0.11543169117E+01 -0.61128036392E+03  0.61192962469E+03  0.00000000000E+00 0. -1.
          2    1    1    2  501    0  0.28157588931E+02  0.11543169117E+01  0.12294138261E+03  0.12612995607E+03  0.00000000000E+00 0. -1.
<mgrwt>
<rscale>  2 0.28181240E+02</rscale>
<asrwt>0</asrwt>
<pdfrwt beam="2">  1       21 0.94338350E-01 0.28181240E+02</pdfrwt>
<pdfrwt beam="1">  1        2 0.19209277E-01 0.28181240E+02</pdfrwt>
<totfact> 0.37067051E+03</totfact>
</mgrwt>
</event>
<event>
 4    1  0.2177230E+006  0.6476981E+02  0.7546771E-02  0.1378839E+00
         21   -1    0    0  501  502  0.00000000000E+00  0.00000000000E+00  0.40450248029E+02  0.40450248029E+02  0.00000000000E+00 0.  1.
          4   -1    0    0  503    0 -0.00000000000E+00 -0.00000000000E+00 -0.12002652478E+03  0.12002652478E+03  0.00000000000E+00 0.  1.
         21    1    1    2  503  502  0.17359111661E+02  0.62400234637E+02 -0.10204839197E+02  0.65568794281E+02  0.00000000000E+00 0.  1.
          4    1    1    2  501    0 -0.17359111661E+02 -0.62400234637E+02 -0.69371437555E+02  0.94907978531E+02  0.00000000000E+00 0.  1.
<mgrwt>
<rscale>  2 0.64769808E+02</rscale>
<asrwt>0</asrwt>
<pdfrwt beam="1">  1       21 0.62231152E-02 0.64769808E+02</pdfrwt>
<pdfrwt beam="2">  1        4 0.18465619E-01 0.64769808E+02</pdfrwt>
<totfact> 0.16912695E+05</totfact>
</mgrwt>
</event>
<event>
 4    1  0.2177230E+006  0.2096560E+02  0.7546771E-02  0.1726781E+00
          4   -1    0    0  502    0 -0.00000000000E+00  0.00000000000E+00  0.28574147620E+03  0.28574147620E+03  0.00000000000E+00 0.  1.
         21   -1    0    0  503  502  0.00000000000E+00 -0.00000000000E+00 -0.29964623840E+01  0.29964623840E+01  0.00000000000E+00 0. -1.
         21    1    1    2  503  501  0.27910165074E+01  0.20778994198E+02  0.40662587018E+02  0.45749342684E+02  0.00000000000E+00 0. -1.
          4    1    1    2  501    0 -0.27910165074E+01 -0.20778994198E+02  0.24208242679E+03  0.24298859590E+03  0.00000000000E+00 0.  1.
<mgrwt>
<rscale>  2 0.20965600E+02</rscale>
<asrwt>0</asrwt>
<pdfrwt beam="2">  1       21 0.46099444E-03 0.20965600E+02</pdfrwt>
<pdfrwt beam="1">  1        4 0.43960206E-01 0.20965600E+02</pdfrwt>
<totfact> 0.13875050E+06</totfact>
</mgrwt>
</event>
<event>
 4    1  0.2177230E+006  0.2096203E+02  0.7546771E-02  0.1726847E+00
          1   -1    0    0  502    0 -0.00000000000E+00  0.00000000000E+00  0.73515352142E+03  0.73515352142E+03  0.00000000000E+00 0.  1.
         21   -1    0    0  503  502  0.00000000000E+00 -0.00000000000E+00 -0.74321277381E+01  0.74321277381E+01  0.00000000000E+00 0.  1.
         21    1    1    2  503  501  0.36381687359E+01 -0.20643897566E+02  0.78108419332E+01  0.22369980558E+02  0.00000000000E+00 0.  1.
          1    1    1    2  501    0 -0.36381687359E+01  0.20643897566E+02  0.71991055175E+03  0.72021566860E+03  0.00000000000E+00 0.  1.
<mgrwt>
<rscale>  2 0.20962032E+02</rscale>
<asrwt>0</asrwt>
<pdfrwt beam="2">  1       21 0.11434048E-02 0.20962032E+02</pdfrwt>
<pdfrwt beam="1">  1        1 0.11310048E+00 0.20962032E+02</pdfrwt>
<totfact> 0.70156088E+05</totfact>
</mgrwt>
</event>
<event>
 4    1  0.2177230E+006  0.3663775E+02  0.7546771E-02  0.1534520E+00
         21   -1    0    0  503  502  0.00000000000E+00  0.00000000000E+00  0.28059639428E+02  0.28059639428E+02  0.00000000000E+00 0. -1.
         -3   -1    0    0    0  501 -0.00000000000E+00 -0.00000000000E+00 -0.76216933790E+02  0.76216933790E+02  0.00000000000E+00 0.  1.
         21    1    1    2  503  501 -0.13143467603E+02 -0.34199036733E+02  0.77359861721E+01  0.37445564973E+02  0.00000000000E+00 0. -1.
         -3    1    1    2    0  502  0.13143467603E+02  0.34199036733E+02 -0.55893280534E+02  0.66831008244E+02  0.00000000000E+00 0.  1.
<mgrwt>
<rscale>  2 0.36637752E+02</rscale>
<asrwt>0</asrwt>
<pdfrwt beam="1">  1       21 0.43168677E-02 0.36637752E+02</pdfrwt>
<pdfrwt beam="2">  1       -3 0.11725682E-01 0.36637752E+02</pdfrwt>
<totfact> 0.68893569E+05</totfact>
</mgrwt>
</event>
<event>
 4    1  0.2177230E+006  0.2407617E+02  0.7546771E-02  0.1674637E+00
         21   -1    0    0  501  502  0.00000000000E+00  0.00000000000E+00  0.13231828820E+02  0.13231828820E+02  0.00000000000E+00 0. -1.
         -4   -1    0    0    0  501 -0.00000000000E+00 -0.00000000000E+00 -0.15042378968E+03  0.15042378968E+03  0.00000000000E+00 0. -1.
         21    1    1    2  503  502 -0.65812573651E+01  0.23159213046E+02  0.29352957190E+00  0.24077962062E+02  0.00000000000E+00 0. -1.
         -4    1    1    2    0  503  0.65812573651E+01 -0.23159213046E+02 -0.13748549043E+03  0.13957765644E+03  0.00000000000E+00 0. -1.
<mgrwt>
<rscale>  2 0.24076173E+02</rscale>
<asrwt>0</asrwt>
<pdfrwt beam="1">  1       21 0.20356660E-02 0.24076173E+02</pdfrwt>
<pdfrwt beam="2">  1       -4 0.23142121E-01 0.24076173E+02</pdfrwt>
<totfact> 0.50981914E+05</totfact>
</mgrwt>
</event>
<event>
 4    1  0.2177230E+006  0.4273974E+02  0.7546771E-02  0.1488966E+00
         21   -1    0    0  503  502  0.00000000000E+00  0.00000000000E+00  0.95233813020E+02  0.95233813020E+02  0.00000000000E+00 0.  1.
         -2   -1    0    0    0  501 -0.00000000000E+00 -0.00000000000E+00 -0.40640009521E+02  0.40640009521E+02  0.00000000000E+00 0. -1.
         21    1    1    2  503  501 -0.42300171527E+02  0.61140220934E+01  0.76663487854E+02  0.87772297151E+02  0.00000000000E+00 0.  1.
         -2    1    1    2    0  502  0.42300171527E+02 -0.61140220934E+01 -0.22069684355E+02  0.48101525390E+02  0.00000000000E+00 0. -1.
<mgrwt>
<rscale>  2 0.42739745E+02</rscale>
<asrwt>0</asrwt>
<pdfrwt beam="1">  1       21 0.14651356E-01 0.42739745E+02</pdfrwt>
<pdfrwt beam="2">  1       -2 0.62523092E-02 0.42739745E+02</pdfrwt>
<totfact> 0.37791789E+05</totfact>
</mgrwt>
</event>
<event>
 4    1  0.2177230E+006  0.2442248E+02  0.7546771E-02  0.1669438E+00
          2   -1    0    0  503    0 -0.00000000000E+00  0.00000000000E+00  0.12307412439E+03  0.12307412439E+03  0.00000000000E+00 0.  1.
         21   -1    0    0  501  502  0.00000000000E+00 -0.00000000000E+00 -0.29077821202E+02  0.29077821202E+02  0.00000000000E+00 0. -1.
         21    1    1    2  503  502  0.23619335937E+02 -0.62116538721E+01 -0.22449356170E+02  0.33172748852E+02  0.00000000000E+00 0. -1.
          2    1    1    2  501    0 -0.23619335937E+02  0.62116538721E+01  0.11644565936E+03  0.11897919674E+03  0.00000000000E+00 0.  1.
<mgrwt>
<rscale>  2 0.24422483E+02</rscale>
<asrwt>0</asrwt>
<pdfrwt beam="2">  1       21 0.44735110E-02 0.24422483E+02</pdfrwt>
<pdfrwt beam="1">  1        2 0.18934480E-01 0.24422483E+02</pdfrwt>
<totfact> 0.89921463E+05</totfact>
</mgrwt>
</event>
<event>
 4    1  0.2177230E+006  0.2127707E+02  0.7546771E-02  0.1721063E+00
         21   -1    0    0  503  502  0.00000000000E+00  0.00000000000E+00  0.42290188410E+02  0.42290188410E+02  0.00000000000E+00 0.  1.
         -4   -1    0    0    0  501 -0.00000000000E+00 -0.00000000000E+00 -0.45975182109E+02  0.45975182109E+02  0.00000000000E+00 0. -1.
         21    1    1    2  503  501  0.15361285859E+02  0.14722251344E+02  0.36812252805E+02  0.42518886914E+02  0.00000000000E+00 0.  1.
         -4    1    1    2    0  502 -0.15361285859E+02 -0.14722251344E+02 -0.40497246504E+02  0.45746483605E+02  0.00000000000E+00 0. -1.
<mgrwt>
<rscale>  2 0.21277072E+02</rscale>
<asrwt>0</asrwt>
<pdfrwt beam="1">  1       21 0.65061828E-02 0.21277072E+02</pdfrwt>
<pdfrwt beam="2">  1       -4 0.70731050E-02 0.21277072E+02</pdfrwt>
<totfact> 0.55016449E+05</totfact>
</mgrwt>
</event>
<event>
 4    1  0.2177230E+006  0.2634539E+02  0.7546771E-02  0.1642397E+00
          1   -1    0    0  503    0 -0.00000000000E+00  0.00000000000E+00  0.25232598108E+03  0.25232598108E+03  0.00000000000E+00 0. -1.
         21   -1    0    0  501  502  0.00000000000E+00 -0.00000000000E+00 -0.14543880216E+02  0.14543880216E+02  0.00000000000E+00 0. -1.
         21    1    1    2  503  502 -0.26345384183E+02 -0.15965597586E-01 -0.12646520659E+01  0.26375724967E+02  0.00000000000E+00 0. -1.
          1    1    1    2  501    0  0.26345384183E+02  0.15965597586E-01  0.23904675292E+03  0.24049413632E+03  0.00000000000E+00 0. -1.
<mgrwt>
<rscale>  2 0.26345389E+02</rscale>
<asrwt>0</asrwt>
<pdfrwt beam="2">  1       21 0.22375202E-02 0.26345389E+02</pdfrwt>
<pdfrwt beam="1">  1        1 0.38819378E-01 0.26345389E+02</pdfrwt>
<totfact> 0.95028329E+05</totfact>
</mgrwt>
</event>
<event>
 4    1  0.2177230E+006  0.2136383E+02  0.7546771E-02  0.1719492E+00
         21   -1    0    0  501  502  0.00000000000E+00  0.00000000000E+00  0.10140738090E+02  0.10140738090E+02  0.00000000000E+00 0. -1.
          2   -1    0    0  503    0 -0.00000000000E+00 -0.00000000000E+00 -0.32007403606E+03  0.32007403606E+03  0.00000000000E+00 0. -1.
         21    1    1    2  503  502  0.16137630448E+01 -0.21302790012E+02 -0.19072996201E+01  0.21448796826E+02  0.00000000000E+00 0. -1.
          2    1    1    2  501    0 -0.16137630448E+01  0.21302790012E+02 -0.30802599835E+03  0.30876597732E+03  0.00000000000E+00 0. -1.
<mgrwt>
<rscale>  2 0.21363827E+02</rscale>
<asrwt>0</asrwt>
<pdfrwt beam="1">  1       21 0.15601136E-02 0.21363827E+02</pdfrwt>
<pdfrwt beam="2">  1        2 0.49242158E-01 0.21363827E+02</pdfrwt>
<totfact> 0.16964709E+06</totfact>
</mgrwt>
</event>
<event>
 4    1  0.2177230E+006  0.2444514E+02  0.7546771E-02  0.1669102E+00
          2   -1    0    0  502    0 -0.00000000000E+00  0.00000000000E+00  0.53254213182E+03  0.53254213182E+03  0.00000000000E+00 0.  1.
         21   -1    0    0  503  502  0.00000000000E+00 -0.00000000000E+00 -0.21665735857E+01  0.21665735857E+01  0.00000000000E+00 0. -1.
         21    1    1    2  503  501  0.17133305928E+02 -0.17436021402E+02  0.79557222238E+02  0.83228099970E+02  0.00000000000E+00 0. -1.
          2    1    1    2  501    0 -0.17133305928E+02  0.17436021402E+02  0.45081833600E+03  0.45148060544E+03  0.00000000000E+00 0.  1.
<mgrwt>
<rscale>  2 0.24445143E+02</rscale>
<asrwt>0</asrwt>
<pdfrwt beam="2">  1       21 0.33331944E-03 0.24445143E+02</pdfrwt>
<pdfrwt beam="1">  1        2 0.81929454E-01 0.24445143E+02</pdfrwt>
<totfact> 0.10522350E+07</totfact>
</mgrwt>
</event>
<event>
 4    1  0.2177230E+006  0.3478675E+02  0.7546771E-02  0.1550502E+00
          4   -1    0    0  503    0 -0.00000000000E+00  0.00000000000E+00  0.10072240994E+03  0.10072240994E+03  0.00000000000E+00 0.  1.
         21   -1    0    0  501  502  0.00000000000E+00 -0.00000000000E+00 -0.33474678575E+02  0.33474678575E+02  0.00000000000E+00 0.  1.
         21    1    1    2  503  502  0.20335336133E+02  0.28223959887E+02 -0.20100676087E+02  0.40176547718E+02  0.00000000000E+00 0.  1.
          4    1    1    2  501    0 -0.20335336133E+02 -0.28223959887E+02  0.87348407453E+02  0.94020540798E+02  0.00000000000E+00 0.  1.
<mgrwt>
<rscale>  2 0.34786748E+02</rscale>
<asrwt>0</asrwt>
<pdfrwt beam="2">  1       21 0.51499506E-02 0.34786748E+02</pdfrwt>
<pdfrwt beam="1">  1        4 0.15495755E-01 0.34786748E+02</pdfrwt>
<totfact> 0.26701398E+05</totfact>
</mgrwt>
</event>
<event>
 4    1  0.2177230E+006  0.3733318E+02  0.7546771E-02  0.1528807E+00
         21   -1    0    0  501  502  0.00000000000E+00  0.00000000000E+00  0.15632142657E+02  0.15632142657E+02  0.00000000000E+00 0. -1.
          2   -1    0    0  503    0 -0.00000000000E+00 -0.00000000000E+00 -0.13643856443E+04  0.13643856443E+04  0.00000000000E+00 0. -1.
         21    1    1    2  503  502 -0.26811297516E+02 -0.25979230261E+02 -0.72941852296E+01  0.38039074878E+02  0.00000000000E+00 0. -1.
          2    1    1    2  501    0  0.26811297516E+02  0.25979230261E+02 -0.13414593164E+04  0.13419787120E+04  0.00000000000E+00 0. -1.
<mgrwt>
<rscale>  2 0.37333177E+02</rscale>
<asrwt>0</asrwt>
<pdfrwt beam="1">  1       21 0.24049441E-02 0.37333177E+02</pdfrwt>
<pdfrwt beam="2">  1        2 0.20990557E+00 0.37333177E+02</pdfrwt>
<totfact> 0.18021081E+05</totfact>
</mgrwt>
</event>
<event>
 4    1  0.2177230E+006  0.2576708E+02  0.7546771E-02  0.1650222E+00
         21   -1    0    0  501  502  0.00000000000E+00  0.00000000000E+00  0.10730853598E+02  0.10730853598E+02  0.00000000000E+00 0.  1.
         -1   -1    0    0    0  501 -0.00000000000E+00 -0.00000000000E+00 -0.13228110464E+03  0.13228110464E+03  0.00000000000E+00 0.  1.
         21    1    1    2  503  502 -0.25287212750E+02  0.49496549421E+01 -0.86067820945E+01  0.27166503469E+02  0.00000000000E+00 0.  1.
         -1    1    1    2    0  503  0.25287212750E+02 -0.49496549421E+01 -0.11294346894E+03  0.11584545477E+03  0.00000000000E+00 0.  1.
<mgrwt>
<rscale>  2 0.25767076E+02</rscale>
<asrwt>0</asrwt>
<pdfrwt beam="1">  1       21 0.16509006E-02 0.25767076E+02</pdfrwt>
<pdfrwt beam="2">  1       -1 0.20350939E-01 0.25767076E+02</pdfrwt>
<totfact> 0.21218048E+06</totfact>
</mgrwt>
</event>
<event>
 4    1  0.2177230E+006  0.2094390E+02  0.7546771E-02  0.1727184E+00
         -2   -1    0    0    0  501 -0.00000000000E+00  0.00000000000E+00  0.90120782398E+02  0.90120782398E+02  0.00000000000E+00 0. -1.
         21   -1    0    0  501  502  0.00000000000E+00 -0.00000000000E+00 -0.20917486282E+02  0.20917486282E+02  0.00000000000E+00 0.  1.
         21    1    1    2  503  502  0.48474761209E+01  0.20375204644E+02 -0.14030971393E+02  0.25209425762E+02  0.00000000000E+00 0.  1.
         -2    1    1    2    0  503 -0.48474761209E+01 -0.20375204644E+02  0.83234267508E+02  0.85828842918E+02  0.00000000000E+00 0. -1.
<mgrwt>
<rscale>  2 0.20943901E+02</rscale>
<asrwt>0</asrwt>
<pdfrwt beam="2">  1       21 0.32180749E-02 0.20943901E+02</pdfrwt>
<pdfrwt beam="1">  1       -2 0.13864736E-01 0.20943901E+02</pdfrwt>
<totfact> 0.11960019E+06</totfact>
</mgrwt>
</event>
<event>
 4    1  0.2177230E+006  0.3376806E+02  0.7546771E-02  0.1559821E+00
         21   -1    0    0  501  502  0.00000000000E+00  0.00000000000E+00  0.98010600201E+01  0.98010600201E+01  0.00000000000E+00 0.  1.
          2   -1    0    0  503    0 -0.00000000000E+00 -0.00000000000E+00 -0.25396944870E+03  0.25396944870E+03  0.00000000000E+00 0.  1.
         21    1    1    2  503  502 -0.58783893852E+01 -0.33252466120E+02 -0.24998129255E+02  0.42014145607E+02  0.00000000000E+00 0.  1.
          2    1    1    2  501    0  0.58783893852E+01  0.33252466120E+02 -0.21917025943E+03  0.22175636312E+03  0.00000000000E+00 0.  1.
<mgrwt>
<rscale>  2 0.33768061E+02</rscale>
<asrwt>0</asrwt>
<pdfrwt beam="1">  1       21 0.15078555E-02 0.33768061E+02</pdfrwt>
<pdfrwt beam="2">  1        2 0.39072221E-01 0.33768061E+02</pdfrwt>
<totfact> 0.24734654E+06</totfact>
</mgrwt>
</event>
<event>
 4    1  0.2177230E+006  0.3281375E+02  0.7546771E-02  0.1568919E+00
         -3   -1    0    0    0  501 -0.00000000000E+00  0.00000000000E+00  0.10728774931E+02  0.10728774931E+02  0.00000000000E+00 0.  1.
         21   -1    0    0  501  502  0.00000000000E+00 -0.00000000000E+00 -0.12604218004E+03  0.12604218004E+03  0.00000000000E+00 0.  1.
         21    1    1    2  503  502 -0.32811570413E+02  0.37837718894E+00 -0.88525515352E+02  0.94411382738E+02  0.00000000000E+00 0.  1.
         -3    1    1    2    0  503  0.32811570413E+02 -0.37837718894E+00 -0.26787889760E+02  0.42359572236E+02  0.00000000000E+00 0.  1.
<mgrwt>
<rscale>  2 0.32813752E+02</rscale>
<asrwt>0</asrwt>
<pdfrwt beam="2">  1       21 0.19391105E-01 0.32813752E+02</pdfrwt>
<pdfrwt beam="1">  1       -3 0.16505807E-02 0.32813752E+02</pdfrwt>
<totfact> 0.10683864E+06</totfact>
</mgrwt>
</event>
<event>
 4    1  0.2177230E+006  0.2237161E+02  0.7546771E-02  0.1701903E+00
          2   -1    0    0  502    0 -0.00000000000E+00  0.00000000000E+00  0.13056886127E+03  0.13056886127E+03  0.00000000000E+00 0. -1.
         21   -1    0    0  503  502  0.00000000000E+00 -0.00000000000E+00 -0.61799608935E+01  0.61799608935E+01  0.00000000000E+00 0.  1.
         21    1    1    2  503  501 -0.72929056832E+01  0.21149525257E+02  0.20059683842E+02  0.30047958462E+02  0.00000000000E+00 0.  1.
          2    1    1    2  501    0  0.72929056832E+01 -0.21149525257E+02  0.10432921653E+03  0.10670086370E+03  0.00000000000E+00 0. -1.
<mgrwt>
<rscale>  2 0.22371609E+02</rscale>
<asrwt>0</asrwt>
<pdfrwt beam="2">  1       21 0.95076331E-03 0.22371609E+02</pdfrwt>
<pdfrwt beam="1">  1        2 0.20087515E-01 0.22371609E+02</pdfrwt>
<totfact> 0.89578601E+06</totfact>
</mgrwt>
</event>
<event>
 4    1  0.2177230E+006  0.2010316E+02  0.7546771E-02  0.1743284E+00
          2   -1    0    0  503    0 -0.00000000000E+00  0.00000000000E+00  0.11299746163E+03  0.11299746163E+03  0.00000000000E+00 0.  1.
         21   -1    0    0  501  502  0.00000000000E+00 -0.00000000000E+00 -0.23744919250E+02  0.23744919250E+02  0.00000000000E+00 0. -1.
         21    1    1    2  503  502 -0.16755515827E+02 -0.11108102036E+02 -0.18385770266E+02  0.27242866768E+02  0.00000000000E+00 0. -1.
          2    1    1    2  501    0  0.16755515827E+02  0.11108102036E+02  0.10763831265E+03  0.10949951411E+03  0.00000000000E+00 0.  1.
<mgrwt>
<rscale>  2 0.20103165E+02</rscale>
<asrwt>0</asrwt>
<pdfrwt beam="2">  1       21 0.36530646E-02 0.20103165E+02</pdfrwt>
<pdfrwt beam="1">  1        2 0.17384225E-01 0.20103165E+02</pdfrwt>
<totfact> 0.13005478E+06</totfact>
</mgrwt>
</event>
<event>
 4    1  0.2177230E+006  0.2208573E+02  0.7546771E-02  0.1706773E+00
         21   -1    0    0  501  502  0.00000000000E+00  0.00000000000E+00  0.30849260694E+00  0.30849260694E+00  0.00000000000E+00 0. -1.
          2   -1    0    0  503    0 -0.00000000000E+00 -0.00000000000E+00 -0.15854452432E+04  0.15854452432E+04  0.00000000000E+00 0. -1.
         21    1    1    2  503  502  0.18413773699E+02 -0.12194778007E+02 -0.83373467582E+03  0.83402715144E+03  0.00000000000E+00 0. -1.
          2    1    1    2  501    0 -0.18413773699E+02  0.12194778007E+02 -0.75140207480E+03  0.75172658439E+03  0.00000000000E+00 0. -1.
<mgrwt>
<rscale>  2 0.22085735E+02</rscale>
<asrwt>0</asrwt>
<pdfrwt beam="1">  1       21 0.47461226E-04 0.22085735E+02</pdfrwt>
<pdfrwt beam="2">  1        2 0.24391041E+00 0.22085735E+02</pdfrwt>
<totfact> 0.42559022E+07</totfact>
</mgrwt>
</event>
<event>
 4    1  0.2177230E+006  0.2776954E+02  0.7546771E-02  0.1624138E+00
         21   -1    0    0  501  502  0.00000000000E+00  0.00000000000E+00  0.95000006460E+02  0.95000006460E+02  0.00000000000E+00 0.  1.
          2   -1    0    0  503    0 -0.00000000000E+00 -0.00000000000E+00 -0.32307580461E+03  0.32307580461E+03  0.00000000000E+00 0. -1.
         21    1    1    2  503  502 -0.16497209522E+02  0.22338074860E+02  0.92357242100E+02  0.96441732039E+02  0.00000000000E+00 0.  1.
          2    1    1    2  501    0  0.16497209522E+02 -0.22338074860E+02 -0.32043304025E+03  0.32163407903E+03  0.00000000000E+00 0. -1.
<mgrwt>
<rscale>  2 0.27769543E+02</rscale>
<asrwt>0</asrwt>
<pdfrwt beam="1">  1       21 0.14615385E-01 0.27769543E+02</pdfrwt>
<pdfrwt beam="2">  1        2 0.49703971E-01 0.27769543E+02</pdfrwt>
<totfact> 0.48724871E+04</totfact>
</mgrwt>
</event>
<event>
 4    1  0.2177230E+006  0.2500222E+02  0.7546771E-02  0.1660970E+00
         21   -1    0    0  503  502  0.00000000000E+00  0.00000000000E+00  0.16174041031E+01  0.16174041031E+01  0.00000000000E+00 0.  1.
          2   -1    0    0  502    0 -0.00000000000E+00 -0.00000000000E+00 -0.15907080975E+04  0.15907080975E+04  0.00000000000E+00 0. -1.
         21    1    1    2  503  501 -0.11937786792E+02  0.21968165421E+02 -0.10182311739E+03  0.10484778624E+03  0.00000000000E+00 0.  1.
          2    1    1    2  501    0  0.11937786792E+02 -0.21968165421E+02 -0.14872675760E+04  0.14874777153E+04  0.00000000000E+00 0. -1.
<mgrwt>
<rscale>  2 0.25002221E+02</rscale>
<asrwt>0</asrwt>
<pdfrwt beam="1">  1       21 0.24883088E-03 0.25002221E+02</pdfrwt>
<pdfrwt beam="2">  1        2 0.24472483E+00 0.25002221E+02</pdfrwt>
<totfact> 0.40852246E+06</totfact>
</mgrwt>
</event>
<event>
 4    1  0.2177230E+006  0.2390210E+02  0.7546771E-02  0.1677291E+00
         21   -1    0    0  503  502  0.00000000000E+00  0.00000000000E+00  0.66698931473E+00  0.66698931473E+00  0.00000000000E+00 0.  1.
          1   -1    0    0  502    0 -0.00000000000E+00 -0.00000000000E+00 -0.13504150142E+04  0.13504150142E+04  0.00000000000E+00 0.  1.
         21    1    1    2  503  501  0.22282890561E+01 -0.23798010472E+02 -0.26634619183E+03  0.26741653740E+03  0.00000000000E+00 0.  1.
          1    1    1    2  501    0 -0.22282890561E+01  0.23798010472E+02 -0.10834018330E+04  0.10836654661E+04  0.00000000000E+00 0.  1.
<mgrwt>
<rscale>  2 0.23902104E+02</rscale>
<asrwt>0</asrwt>
<pdfrwt beam="1">  1       21 0.10261329E-03 0.23902104E+02</pdfrwt>
<pdfrwt beam="2">  1        1 0.20775706E+00 0.23902104E+02</pdfrwt>
<totfact> 0.94279155E+06</totfact>
</mgrwt>
</event>
<event>
 4    1  0.2177230E+006  0.2857932E+02  0.7546771E-02  0.1614345E+00
         21   -1    0    0  501  502  0.00000000000E+00  0.00000000000E+00  0.10899062545E+03  0.10899062545E+03  0.00000000000E+00 0.  1.
          4   -1    0    0  503    0 -0.00000000000E+00 -0.00000000000E+00 -0.15793333843E+02  0.15793333843E+02  0.00000000000E+00 0.  1.
         21    1    1    2  503  502 -0.27700767346E+02 -0.70316954061E+01  0.91827242576E+02  0.96171823997E+02  0.00000000000E+00 0.  1.
          4    1    1    2  501    0  0.27700767346E+02  0.70316954061E+01  0.13700490311E+01  0.28612135296E+02  0.00000000000E+00 0.  1.
<mgrwt>
<rscale>  2 0.28579315E+02</rscale>
<asrwt>0</asrwt>
<pdfrwt beam="1">  1       21 0.16767788E-01 0.28579315E+02</pdfrwt>
<pdfrwt beam="2">  1        4 0.24297437E-02 0.28579315E+02</pdfrwt>
<totfact> 0.64744666E+05</totfact>
</mgrwt>
</event>
<event>
 4    1  0.2177230E+006  0.2038144E+02  0.7546771E-02  0.1737847E+00
         21   -1    0    0  501  502  0.00000000000E+00  0.00000000000E+00  0.95731080897E+01  0.95731080897E+01  0.00000000000E+00 0. -1.
         -4   -1    0    0    0  501 -0.00000000000E+00 -0.00000000000E+00 -0.56718203474E+02  0.56718203474E+02  0.00000000000E+00 0. -1.
         21    1    1    2  503  502  0.18150289797E+02 -0.92720067225E+01 -0.75065762643E+01  0.21719848424E+02  0.00000000000E+00 0. -1.
         -4    1    1    2    0  503 -0.18150289797E+02  0.92720067225E+01 -0.39638519120E+02  0.44571463139E+02  0.00000000000E+00 0. -1.
<mgrwt>
<rscale>  2 0.20381441E+02</rscale>
<asrwt>0</asrwt>
<pdfrwt beam="1">  1       21 0.14727858E-02 0.20381441E+02</pdfrwt>
<pdfrwt beam="2">  1       -4 0.87258776E-02 0.20381441E+02</pdfrwt>
<totfact> 0.39098453E+06</totfact>
</mgrwt>
</event>
<event>
 4    1  0.2177230E+006  0.2914404E+02  0.7546771E-02  0.1607748E+00
         21   -1    0    0  503  502  0.00000000000E+00  0.00000000000E+00  0.15172040544E+01  0.15172040544E+01  0.00000000000E+00 0. -1.
          2   -1    0    0  502    0 -0.00000000000E+00 -0.00000000000E+00 -0.58760454822E+03  0.58760454822E+03  0.00000000000E+00 0. -1.
         21    1    1    2  503  501 -0.26491883150E+02 -0.12147224188E+02 -0.22900190681E+03  0.23084897281E+03  0.00000000000E+00 0. -1.
          2    1    1    2  501    0  0.26491883150E+02  0.12147224188E+02 -0.35708543736E+03  0.35827277946E+03  0.00000000000E+00 0. -1.
<mgrwt>
<rscale>  2 0.29144038E+02</rscale>
<asrwt>0</asrwt>
<pdfrwt beam="1">  1       21 0.23341586E-03 0.29144038E+02</pdfrwt>
<pdfrwt beam="2">  1        2 0.90400755E-01 0.29144038E+02</pdfrwt>
<totfact> 0.16730468E+07</totfact>
</mgrwt>
</event>
<event>
 4    1  0.2177230E+006  0.2080539E+02  0.7546771E-02  0.1729771E+00
         -1   -1    0    0    0  501 -0.00000000000E+00  0.00000000000E+00  0.22989104401E+02  0.22989104401E+02  0.00000000000E+00 0.  1.
         21   -1    0    0  503  502  0.00000000000E+00 -0.00000000000E+00 -0.24048617933E+03  0.24048617933E+03  0.00000000000E+00 0.  1.
         21    1    1    2  503  501  0.11020069622E+02  0.17647156877E+02 -0.23522381173E+03  0.23614213027E+03  0.00000000000E+00 0.  1.
         -1    1    1    2    0  502 -0.11020069622E+02 -0.17647156877E+02  0.17726736808E+02  0.27333153462E+02  0.00000000000E+00 0.  1.
<mgrwt>
<rscale>  2 0.20805386E+02</rscale>
<asrwt>0</asrwt>
<pdfrwt beam="2">  1       21 0.36997874E-01 0.20805386E+02</pdfrwt>
<pdfrwt beam="1">  1       -1 0.35367853E-02 0.20805386E+02</pdfrwt>
<totfact> 0.14827658E+05</totfact>
</mgrwt>
</event>
<event>
 4    1  0.2177230E+006  0.3477830E+02  0.7546771E-02  0.1550578E+00
         21   -1    0    0  501  502  0.00000000000E+00  0.00000000000E+00  0.14469825198E+02  0.14469825198E+02  0.00000000000E+00 0. -1.
          3   -1    0    0  503    0 -0.00000000000E+00 -0.00000000000E+00 -0.26710486296E+03  0.26710486296E+03  0.00000000000E+00 0. -1.
         21    1    1    2  503  502 -0.17480398335E+02  0.30066025077E+02 -0.96208269957E+01  0.36084491156E+02  0.00000000000E+00 0. -1.
          3    1    1    2  501    0  0.17480398335E+02 -0.30066025077E+02 -0.24301421077E+03  0.24549019700E+03  0.00000000000E+00 0. -1.
<mgrwt>
<rscale>  2 0.34778301E+02</rscale>
<asrwt>0</asrwt>
<pdfrwt beam="1">  1       21 0.22261273E-02 0.34778301E+02</pdfrwt>
<pdfrwt beam="2">  1        3 0.41093049E-01 0.34778301E+02</pdfrwt>
<totfact> 0.22281390E+05</totfact>
</mgrwt>
</event>
<event>
 4    1  0.2177230E+006  0.2035950E+02  0.7546771E-02  0.1738272E+00
         21   -1    0    0  501  502  0.00000000000E+00  0.00000000000E+00  0.99364240311E+02  0.99364240311E+02  0.00000000000E+00 0.  1.
         -2   -1    0    0    0  501 -0.00000000000E+00 -0.00000000000E+00 -0.39636742008E+02  0.39636742008E+02  0.00000000000E+00 0. -1.
         21    1    1    2  503  502  0.19762503428E+02  0.48941661665E+01  0.95605256197E+02  0.97749037932E+02  0.00000000000E+00 0.  1.
         -2    1    1    2    0  503 -0.19762503428E+02 -0.48941661665E+01 -0.35877757894E+02  0.41251944387E+02  0.00000000000E+00 0. -1.
<mgrwt>
<rscale>  2 0.20359504E+02</rscale>
<asrwt>0</asrwt>
<pdfrwt beam="1">  1       21 0.15286806E-01 0.20359504E+02</pdfrwt>
<pdfrwt beam="2">  1       -2 0.60979603E-02 0.20359504E+02</pdfrwt>
<totfact> 0.32155923E+05</totfact>
</mgrwt>
</event>
<event>
 4    1  0.2177230E+006  0.2565766E+02  0.7546771E-02  0.1651732E+00
         -2   -1    0    0    0  501 -0.00000000000E+00  0.00000000000E+00  0.59141254251E+01  0.59141254251E+01  0.00000000000E+00 0.  1.
         21   -1    0    0  503  502  0.00000000000E+00 -0.00000000000E+00 -0.14204442092E+03  0.14204442092E+03  0.00000000000E+00 0.  1.
         21    1    1    2  503  501  0.21458676317E+02  0.14065580453E+02 -0.10247586395E+03  0.10563909331E+03  0.00000000000E+00 0.  1.
         -2    1    1    2    0  502 -0.21458676317E+02 -0.14065580453E+02 -0.33654431548E+02  0.42319453040E+02  0.00000000000E+00 0.  1.
<mgrwt>
<rscale>  2 0.25657657E+02</rscale>
<asrwt>0</asrwt>
<pdfrwt beam="2">  1       21 0.21852986E-01 0.25657657E+02</pdfrwt>
<pdfrwt beam="1">  1       -2 0.90986552E-03 0.25657657E+02</pdfrwt>
<totfact> 0.25338175E+06</totfact>
</mgrwt>
</event>
<event>
 4    1  0.2177230E+006  0.2314655E+02  0.7546771E-02  0.1689146E+00
          2   -1    0    0  503    0 -0.00000000000E+00  0.00000000000E+00  0.35915486354E+02  0.35915486354E+02  0.00000000000E+00 0.  1.
         21   -1    0    0  501  502  0.00000000000E+00 -0.00000000000E+00 -0.15910547159E+03  0.15910547159E+03  0.00000000000E+00 0.  1.
         21    1    1    2  503  502 -0.67210630378E+01 -0.22149269433E+02 -0.15442182234E+03  0.15614692453E+03  0.00000000000E+00 0.  1.
          2    1    1    2  501    0  0.67210630378E+01  0.22149269433E+02  0.31231837106E+02  0.38874033413E+02  0.00000000000E+00 0.  1.
<mgrwt>
<rscale>  2 0.23146551E+02</rscale>
<asrwt>0</asrwt>
<pdfrwt beam="2">  1       21 0.24477764E-01 0.23146551E+02</pdfrwt>
<pdfrwt beam="1">  1        2 0.55254595E-02 0.23146551E+02</pdfrwt>
<totfact> 0.21449014E+05</totfact>
</mgrwt>
</event>
<event>
 4    1  0.2177230E+006  0.2043378E+02  0.7546771E-02  0.1736837E+00
         21   -1    0    0  501  502  0.00000000000E+00  0.00000000000E+00  0.16893482450E+02  0.16893482450E+02  0.00000000000E+00 0.  1.
          1   -1    0    0  503    0 -0.00000000000E+00 -0.00000000000E+00 -0.51417409247E+03  0.51417409247E+03  0.00000000000E+00 0.  1.
         21    1    1    2  503  502  0.17842763881E+02 -0.99586674808E+01  0.10432872954E+02  0.22943062546E+02  0.00000000000E+00 0.  1.
          1    1    1    2  501    0 -0.17842763881E+02  0.99586674808E+01 -0.50771348297E+03  0.50812451237E+03  0.00000000000E+00 0.  1.
<mgrwt>
<rscale>  2 0.20433778E+02</rscale>
<asrwt>0</asrwt>
<pdfrwt beam="1">  1       21 0.25989975E-02 0.20433778E+02</pdfrwt>
<pdfrwt beam="2">  1        1 0.79103699E-01 0.20433778E+02</pdfrwt>
<totfact> 0.31419968E+05</totfact>
</mgrwt>
</event>
<event>
 4    1  0.2177230E+006  0.2117938E+02  0.7546771E-02  0.1722843E+00
          1   -1    0    0  503    0 -0.00000000000E+00  0.00000000000E+00  0.14907135992E+02  0.14907135992E+02  0.00000000000E+00 0.  1.
         21   -1    0    0  501  502  0.00000000000E+00 -0.00000000000E+00 -0.34016340501E+02  0.34016340501E+02  0.00000000000E+00 0.  1.
         21    1    1    2  503  502 -0.10295580252E+02 -0.18508571840E+02 -0.17864556009E+02  0.27707554307E+02  0.00000000000E+00 0.  1.
          1    1    1    2  501    0  0.10295580252E+02  0.18508571840E+02 -0.12446484996E+01  0.21215922185E+02  0.00000000000E+00 0.  1.
<mgrwt>
<rscale>  2 0.21179382E+02</rscale>
<asrwt>0</asrwt>
<pdfrwt beam="2">  1       21 0.52332831E-02 0.21179382E+02</pdfrwt>
<pdfrwt beam="1">  1        1 0.22934055E-02 0.21179382E+02</pdfrwt>
<totfact> 0.79505628E+06</totfact>
</mgrwt>
</event>
<event>
 4    1  0.2177230E+006  0.2233515E+02  0.7546771E-02  0.1702519E+00
         21   -1    0    0  503  502  0.00000000000E+00  0.00000000000E+00  0.18818807117E+01  0.18818807117E+01  0.00000000000E+00 0.  1.
          2   -1    0    0  502    0 -0.00000000000E+00 -0.00000000000E+00 -0.46002127631E+03  0.46002127631E+03  0.00000000000E+00 0.  1.
         21    1    1    2  503  501  0.17446066137E+02 -0.13946097263E+02 -0.78728498562E+02  0.81835416162E+02  0.00000000000E+00 0.  1.
          2    1    1    2  501    0 -0.17446066137E+02  0.13946097263E+02 -0.37941089704E+03  0.38006774086E+03  0.00000000000E+00 0.  1.
<mgrwt>
<rscale>  2 0.22335148E+02</rscale>
<asrwt>0</asrwt>
<pdfrwt beam="1">  1       21 0.28952007E-03 0.22335148E+02</pdfrwt>
<pdfrwt beam="2">  1        2 0.70772513E-01 0.22335148E+02</pdfrwt>
<totfact> 0.14616152E+07</totfact>
</mgrwt>
</event>
<event>
 4    1  0.2177230E+006  0.2064009E+02  0.7546771E-02  0.1732891E+00
         21   -1    0    0  503  502  0.00000000000E+00  0.00000000000E+00  0.10470993147E+01  0.10470993147E+01  0.00000000000E+00 0. -1.
         -1   -1    0    0    0  501 -0.00000000000E+00 -0.00000000000E+00 -0.52628406186E+03  0.52628406186E+03  0.00000000000E+00 0. -1.
         21    1    1    2  503  501  0.12307731487E+02 -0.16569039977E+02 -0.13701382953E+03  0.13855974460E+03  0.00000000000E+00 0. -1.
         -1    1    1    2    0  502 -0.12307731487E+02  0.16569039977E+02 -0.38822313301E+03  0.38877141657E+03  0.00000000000E+00 0. -1.
<mgrwt>
<rscale>  2 0.20640091E+02</rscale>
<asrwt>0</asrwt>
<pdfrwt beam="1">  1       21 0.16109213E-03 0.20640091E+02</pdfrwt>
<pdfrwt beam="2">  1       -1 0.80966817E-01 0.20640091E+02</pdfrwt>
<totfact> 0.60537932E+06</totfact>
</mgrwt>
</event>
<event>
 4    1  0.2177230E+006  0.2049448E+02  0.7546771E-02  0.1735670E+00
         21   -1    0    0  503  502  0.00000000000E+00  0.00000000000E+00  0.24820018310E+02  0.24820018310E+02  0.00000000000E+00 0. -1.
          4   -1    0    0  502    0 -0.00000000000E+00 -0.00000000000E+00 -0.21698061688E+02  0.21698061688E+02  0.00000000000E+00 0. -1.
         21    1    1    2  503  501  0.69443870527E+01  0.19282094193E+02  0.12472388674E+02  0.23991334837E+02  0.00000000000E+00 0. -1.
          4    1    1    2  501    0 -0.69443870527E+01 -0.19282094193E+02 -0.93504320524E+01  0.22526745162E+02  0.00000000000E+00 0. -1.
<mgrwt>
<rscale>  2 0.20494479E+02</rscale>
<asrwt>0</asrwt>
<pdfrwt beam="1">  1       21 0.38184643E-02 0.20494479E+02</pdfrwt>
<pdfrwt beam="2">  1        4 0.33381634E-02 0.20494479E+02</pdfrwt>
<totfact> 0.39663011E+06</totfact>
</mgrwt>
</event>
<event>
 4    1  0.2177230E+006  0.2560071E+02  0.7546771E-02  0.1652521E+00
         -2   -1    0    0    0  501 -0.00000000000E+00  0.00000000000E+00  0.26243134984E+03  0.26243134984E+03  0.00000000000E+00 0. -1.
         21   -1    0    0  503  502  0.00000000000E+00 -0.00000000000E+00 -0.15360237008E+02  0.15360237008E+02  0.00000000000E+00 0.  1.
         21    1    1    2  503  501  0.29273565060E+01  0.25432789451E+02 -0.35682359248E+01  0.25848181812E+02  0.00000000000E+00 0.  1.
         -2    1    1    2    0  502 -0.29273565060E+01 -0.25432789451E+02  0.25063934876E+03  0.25194340504E+03  0.00000000000E+00 0. -1.
<mgrwt>
<rscale>  2 0.25600707E+02</rscale>
<asrwt>0</asrwt>
<pdfrwt beam="2">  1       21 0.23631136E-02 0.25600707E+02</pdfrwt>
<pdfrwt beam="1">  1       -2 0.40374050E-01 0.25600707E+02</pdfrwt>
<totfact> 0.34264766E+05</totfact>
</mgrwt>
</event>
<event>
 4    1  0.2177230E+006  0.2052428E+02  0.7546771E-02  0.1735099E+00
          2   -1    0    0  502    0 -0.00000000000E+00  0.00000000000E+00  0.14726908335E+03  0.14726908335E+03  0.00000000000E+00 0. -1.
         21   -1    0    0  503  502  0.00000000000E+00 -0.00000000000E+00 -0.51125603705E+02  0.51125603705E+02  0.00000000000E+00 0.  1.
         21    1    1    2  503  501  0.50069973071E+01 -0.19904169762E+02 -0.48310710959E+02  0.52489720796E+02  0.00000000000E+00 0.  1.
          2    1    1    2  501    0 -0.50069973071E+01  0.19904169762E+02  0.14445419060E+03  0.14590496626E+03  0.00000000000E+00 0. -1.
<mgrwt>
<rscale>  2 0.20524278E+02</rscale>
<asrwt>0</asrwt>
<pdfrwt beam="2">  1       21 0.78654775E-02 0.20524278E+02</pdfrwt>
<pdfrwt beam="1">  1        2 0.22656782E-01 0.20524278E+02</pdfrwt>
<totfact> 0.29176021E+05</totfact>
</mgrwt>
</event>
<event>
 4    1  0.2177230E+006  0.3152424E+02  0.7546771E-02  0.1581827E+00
         -3   -1    0    0    0  501 -0.00000000000E+00  0.00000000000E+00  0.39338899181E+03  0.39338899181E+03  0.00000000000E+00 0. -1.
         21   -1    0    0  501  502  0.00000000000E+00 -0.00000000000E+00 -0.29917198680E+01  0.29917198680E+01  0.00000000000E+00 0. -1.
         21    1    1    2  503  502  0.10965876653E+02 -0.29555498162E+02  0.11701915833E+03  0.12119101179E+03  0.00000000000E+00 0. -1.
         -3    1    1    2    0  503 -0.10965876653E+02  0.29555498162E+02  0.27337811361E+03  0.27518969988E+03  0.00000000000E+00 0. -1.
<mgrwt>
<rscale>  2 0.31524243E+02</rscale>
<asrwt>0</asrwt>
<pdfrwt beam="2">  1       21 0.46026491E-03 0.31524243E+02</pdfrwt>
<pdfrwt beam="1">  1       -3 0.60521342E-01 0.31524243E+02</pdfrwt>
<totfact> 0.11323326E+06</totfact>
</mgrwt>
</event>
<event>
 4    1  0.2177230E+006  0.3401838E+02  0.7546771E-02  0.1557494E+00
         21   -1    0    0  501  502  0.00000000000E+00  0.00000000000E+00  0.18915855029E+03  0.18915855029E+03  0.00000000000E+00 0.  1.
         -2   -1    0    0    0  501 -0.00000000000E+00 -0.00000000000E+00 -0.10986347375E+02  0.10986347375E+02  0.00000000000E+00 0.  1.
         21    1    1    2  503  502  0.19305323357E+02 -0.28009905408E+02  0.15570290043E+03  0.15937579337E+03  0.00000000000E+00 0.  1.
         -2    1    1    2    0  503 -0.19305323357E+02  0.28009905408E+02  0.22469302490E+02  0.40769104298E+02  0.00000000000E+00 0.  1.
<mgrwt>
<rscale>  2 0.34018382E+02</rscale>
<asrwt>0</asrwt>
<pdfrwt beam="1">  1       21 0.29101313E-01 0.34018382E+02</pdfrwt>
<pdfrwt beam="2">  1       -2 0.16902074E-02 0.34018382E+02</pdfrwt>
<totfact> 0.68690795E+05</totfact>
</mgrwt>
</event>
<event>
 4    1  0.2177230E+006  0.2207748E+02  0.7546771E-02  0.1706915E+00
         21   -1    0    0  503  502  0.00000000000E+00  0.00000000000E+00  0.81116303897E+01  0.81116303897E+01  0.00000000000E+00 0. -1.
          1   -1    0    0  502    0 -0.00000000000E+00 -0.00000000000E+00 -0.12150537327E+03  0.12150537327E+03  0.00000000000E+00 0. -1.
         21    1    1    2  503  501  0.20264305658E+02  0.87620308910E+01 -0.10620498963E+02  0.24499189116E+02  0.00000000000E+00 0. -1.
          1    1    1    2  501    0 -0.20264305658E+02 -0.87620308910E+01 -0.10277324391E+03  0.10511781454E+03  0.00000000000E+00 0. -1.
<mgrwt>
<rscale>  2 0.22077483E+02</rscale>
<asrwt>0</asrwt>
<pdfrwt beam="1">  1       21 0.12479432E-02 0.22077483E+02</pdfrwt>
<pdfrwt beam="2">  1        1 0.18693133E-01 0.22077483E+02</pdfrwt>
<totfact> 0.52493768E+06</totfact>
</mgrwt>
</event>
<event>
 4    1  0.2177230E+006  0.3793497E+02  0.7546771E-02  0.1523982E+00
         21   -1    0    0  501  502  0.00000000000E+00  0.00000000000E+00  0.10945372813E+01  0.10945372813E+01  0.00000000000E+00 0. -1.
          1   -1    0    0  503    0 -0.00000000000E+00 -0.00000000000E+00 -0.16888264737E+04  0.16888264737E+04  0.00000000000E+00 0.  1.
         21    1    1    2  503  502  0.37847397989E+02  0.25761303916E+01 -0.44620408213E+03  0.44781373906E+03  0.00000000000E+00 0. -1.
          1    1    1    2  501    0 -0.37847397989E+02 -0.25761303916E+01 -0.12415278543E+04  0.12421072719E+04  0.00000000000E+00 0.  1.
<mgrwt>
<rscale>  2 0.37934970E+02</rscale>
<asrwt>0</asrwt>
<pdfrwt beam="1">  1       21 0.16839067E-03 0.37934970E+02</pdfrwt>
<pdfrwt beam="2">  1        1 0.25981897E+00 0.37934970E+02</pdfrwt>
<totfact> 0.31261152E+06</totfact>
</mgrwt>
</event>
<event>
 4    1  0.2177230E+006  0.2093096E+02  0.7546771E-02  0.1727424E+00
         21   -1    0    0  501  502  0.00000000000E+00  0.00000000000E+00  0.84463736319E+00  0.84463736319E+00  0.00000000000E+00 0. -1.
          2   -1    0    0  503    0 -0.00000000000E+00 -0.00000000000E+00 -0.15010244699E+04  0.15010244699E+04  0.00000000000E+00 0. -1.
         21    1    1    2  503  502 -0.41511098645E+01 -0.20515195994E+02 -0.14260165905E+03  0.14412958803E+03  0.00000000000E+00 0. -1.
          2    1    1    2  501    0  0.41511098645E+01  0.20515195994E+02 -0.13575781735E+04  0.13577395192E+04  0.00000000000E+00 0. -1.
<mgrwt>
<rscale>  2 0.20930957E+02</rscale>
<asrwt>0</asrwt>
<pdfrwt beam="1">  1       21 0.12994281E-03 0.20930957E+02</pdfrwt>
<pdfrwt beam="2">  1        2 0.23092932E+00 0.20930957E+02</pdfrwt>
<totfact> 0.11051369E+07</totfact>
</mgrwt>
</event>
<event>
 4    1  0.2177230E+006  0.3055424E+02  0.7546771E-02  0.1592042E+00
         -2   -1    0    0    0  501 -0.00000000000E+00  0.00000000000E+00  0.35340637895E+02  0.35340637895E+02  0.00000000000E+00 0.  1.
         21   -1    0    0  503  502  0.00000000000E+00 -0.00000000000E+00 -0.19745011159E+03  0.19745011159E+03  0.00000000000E+00 0.  1.
         21    1    1    2  503  501  0.37303306096E+01 -0.30325668053E+02 -0.18938462221E+03  0.19183351281E+03  0.00000000000E+00 0.  1.
         -2    1    1    2    0  502 -0.37303306096E+01  0.30325668053E+02  0.27275148514E+02  0.40957236671E+02  0.00000000000E+00 0.  1.
<mgrwt>
<rscale>  2 0.30554239E+02</rscale>
<asrwt>0</asrwt>
<pdfrwt beam="2">  1       21 0.30376940E-01 0.30554239E+02</pdfrwt>
<pdfrwt beam="1">  1       -2 0.54370212E-02 0.30554239E+02</pdfrwt>
<totfact> 0.12029235E+05</totfact>
</mgrwt>
</event>
<event>
 4    1  0.2177230E+006  0.3329300E+02  0.7546771E-02  0.1564303E+00
         21   -1    0    0  501  502  0.00000000000E+00  0.00000000000E+00  0.11426503943E+02  0.11426503943E+02  0.00000000000E+00 0.  1.
          2   -1    0    0  503    0 -0.00000000000E+00 -0.00000000000E+00 -0.68506290944E+03  0.68506290944E+03  0.00000000000E+00 0.  1.
         21    1    1    2  503  502  0.31767570936E+02 -0.99622037932E+01 -0.14169835329E+02  0.36182983582E+02  0.00000000000E+00 0.  1.
          2    1    1    2  501    0 -0.31767570936E+02  0.99622037932E+01 -0.65946657017E+03  0.66030642981E+03  0.00000000000E+00 0.  1.
<mgrwt>
<rscale>  2 0.33293003E+02</rscale>
<asrwt>0</asrwt>
<pdfrwt beam="1">  1       21 0.17579230E-02 0.33293003E+02</pdfrwt>
<pdfrwt beam="2">  1        2 0.10539434E+00 0.33293003E+02</pdfrwt>
<totfact> 0.70348758E+05</totfact>
</mgrwt>
</event>
<event>
 4    1  0.2177230E+006  0.3060579E+02  0.7546771E-02  0.1591487E+00
         21   -1    0    0  501  502  0.00000000000E+00  0.00000000000E+00  0.80172627431E+00  0.80172627431E+00  0.00000000000E+00 0.  1.
          2   -1    0    0  503    0 -0.00000000000E+00 -0.00000000000E+00 -0.11696290160E+04  0.11696290160E+04  0.00000000000E+00 0.  1.
         21    1    1    2  503  502  0.24093511348E+02  0.18873720398E+02 -0.56522939657E+03  0.56605740465E+03  0.00000000000E+00 0.  1.
          2    1    1    2  501    0 -0.24093511348E+02 -0.18873720398E+02 -0.60359789315E+03  0.60437333762E+03  0.00000000000E+00 0.  1.
<mgrwt>
<rscale>  2 0.30605794E+02</rscale>
<asrwt>0</asrwt>
<pdfrwt beam="1">  1       21 0.12334280E-03 0.30605794E+02</pdfrwt>
<pdfrwt beam="2">  1        2 0.17994250E+00 0.30605794E+02</pdfrwt>
<totfact> 0.18890896E+07</totfact>
</mgrwt>
</event>
<event>
 4    1  0.2177230E+006  0.2212244E+02  0.7546771E-02  0.1706143E+00
         21   -1    0    0  503  502  0.00000000000E+00  0.00000000000E+00  0.11703618367E+02  0.11703618367E+02  0.00000000000E+00 0.  1.
         -4   -1    0    0    0  501 -0.00000000000E+00 -0.00000000000E+00 -0.81675931597E+02  0.81675931597E+02  0.00000000000E+00 0. -1.
         21    1    1    2  503  501  0.12107429218E+02  0.18515202352E+02 -0.23693739604E+01  0.22248966119E+02  0.00000000000E+00 0.  1.
         -4    1    1    2    0  502 -0.12107429218E+02 -0.18515202352E+02 -0.67602939269E+02  0.71130583845E+02  0.00000000000E+00 0. -1.
<mgrwt>
<rscale>  2 0.22122445E+02</rscale>
<asrwt>0</asrwt>
<pdfrwt beam="1">  1       21 0.18005566E-02 0.22122445E+02</pdfrwt>
<pdfrwt beam="2">  1       -4 0.12565528E-01 0.22122445E+02</pdfrwt>
<totfact> 0.16651828E+06</totfact>
</mgrwt>
</event>
<event>
 4    1  0.2177230E+006  0.2326393E+02  0.7546771E-02  0.1687267E+00
          2   -1    0    0  502    0 -0.00000000000E+00  0.00000000000E+00  0.64165589173E+03  0.64165589173E+03  0.00000000000E+00 0. -1.
         21   -1    0    0  503  502  0.00000000000E+00 -0.00000000000E+00 -0.98643695984E+01  0.98643695984E+01  0.00000000000E+00 0.  1.
         21    1    1    2  503  501 -0.18976801257E+01 -0.23186406162E+02  0.43739600524E+01  0.23671547205E+02  0.00000000000E+00 0.  1.
          2    1    1    2  501    0  0.18976801257E+01  0.23186406162E+02  0.62741756208E+03  0.62784871412E+03  0.00000000000E+00 0. -1.
<mgrwt>
<rscale>  2 0.23263934E+02</rscale>
<asrwt>0</asrwt>
<pdfrwt beam="2">  1       21 0.15175958E-02 0.23263934E+02</pdfrwt>
<pdfrwt beam="1">  1        2 0.98716258E-01 0.23263934E+02</pdfrwt>
<totfact> 0.89489535E+05</totfact>
</mgrwt>
</event>
<event>
 4    1  0.2177230E+006  0.2381894E+02  0.7546771E-02  0.1678569E+00
         21   -1    0    0  503  502  0.00000000000E+00  0.00000000000E+00  0.32004951686E+03  0.32004951686E+03  0.00000000000E+00 0. -1.
         -1   -1    0    0    0  501 -0.00000000000E+00 -0.00000000000E+00 -0.17736304109E+01  0.17736304109E+01  0.00000000000E+00 0.  1.
         21    1    1    2  503  501  0.20642478983E+02 -0.11884029755E+02  0.16288281911E+03  0.16461517203E+03  0.00000000000E+00 0. -1.
         -1    1    1    2    0  502 -0.20642478983E+02  0.11884029755E+02  0.15539306734E+03  0.15720797524E+03  0.00000000000E+00 0.  1.
<mgrwt>
<rscale>  2 0.23818944E+02</rscale>
<asrwt>0</asrwt>
<pdfrwt beam="1">  1       21 0.49238341E-01 0.23818944E+02</pdfrwt>
<pdfrwt beam="2">  1       -1 0.27286647E-03 0.23818944E+02</pdfrwt>
<totfact> 0.27982804E+06</totfact>
</mgrwt>
</event>
<event>
 4    1  0.2177230E+006  0.2703988E+02  0.7546771E-02  0.1633320E+00
          2   -1    0    0  502    0 -0.00000000000E+00  0.00000000000E+00  0.36791459506E+02  0.36791459506E+02  0.00000000000E+00 0.  1.
         21   -1    0    0  503  502  0.00000000000E+00 -0.00000000000E+00 -0.20429419199E+02  0.20429419199E+02  0.00000000000E+00 0. -1.
         21    1    1    2  503  501  0.25459630350E+02 -0.91083566907E+01  0.34591289131E+01  0.27260236830E+02  0.00000000000E+00 0. -1.
          2    1    1    2  501    0 -0.25459630350E+02  0.91083566907E+01  0.12902911394E+02  0.29960641876E+02  0.00000000000E+00 0.  1.
<mgrwt>
<rscale>  2 0.27039877E+02</rscale>
<asrwt>0</asrwt>
<pdfrwt beam="2">  1       21 0.31429876E-02 0.27039877E+02</pdfrwt>
<pdfrwt beam="1">  1        2 0.56602245E-02 0.27039877E+02</pdfrwt>
<totfact> 0.64356359E+06</totfact>
</mgrwt>
</event>
<event>
 4    1  0.2177230E+006  0.2749504E+02  0.7546771E-02  0.1627552E+00
          2   -1    0    0  503    0 -0.00000000000E+00  0.00000000000E+00  0.11855216042E+04  0.11855216042E+04  0.00000000000E+00 0. -1.
         21   -1    0    0  501  502  0.00000000000E+00 -0.00000000000E+00 -0.21184235407E+02  0.21184235407E+02  0.00000000000E+00 0. -1.
         21    1    1    2  503  502 -0.17359784563E+01  0.27440185124E+02 -0.12033969900E+02  0.30013227290E+02  0.00000000000E+00 0. -1.
          2    1    1    2  501    0  0.17359784563E+01 -0.27440185124E+02  0.11763713387E+04  0.11766926123E+04  0.00000000000E+00 0. -1.
<mgrwt>
<rscale>  2 0.27495043E+02</rscale>
<asrwt>0</asrwt>
<pdfrwt beam="2">  1       21 0.32591141E-02 0.27495043E+02</pdfrwt>
<pdfrwt beam="1">  1        2 0.18238789E+00 0.27495043E+02</pdfrwt>
<totfact> 0.13468472E+05</totfact>
</mgrwt>
</event>
<event>
 4    1  0.2177230E+006  0.6088292E+02  0.7546771E-02  0.1394163E+00
          1   -1    0    0  503    0 -0.00000000000E+00  0.00000000000E+00  0.75293798103E+03  0.75293798103E+03  0.00000000000E+00 0.  1.
         21   -1    0    0  501  502  0.00000000000E+00 -0.00000000000E+00 -0.50760551737E+01  0.50760551737E+01  0.00000000000E+00 0.  1.
         21    1    1    2  503  502 -0.60386243281E+02 -0.77608868499E+01  0.30812309430E+03  0.31408051672E+03  0.00000000000E+00 0.  1.
          1    1    1    2  501    0  0.60386243281E+02  0.77608868499E+01  0.43973883156E+03  0.44393351948E+03  0.00000000000E+00 0.  1.
<mgrwt>
<rscale>  2 0.60882918E+02</rscale>
<asrwt>0</asrwt>
<pdfrwt beam="2">  1       21 0.78093216E-03 0.60882918E+02</pdfrwt>
<pdfrwt beam="1">  1        1 0.11583652E+00 0.60882918E+02</pdfrwt>
<totfact> 0.14125475E+06</totfact>
</mgrwt>
</event>
<event>
 4    1  0.2177230E+006  0.2172758E+02  0.7546771E-02  0.1713006E+00
         21   -1    0    0  501  502  0.00000000000E+00  0.00000000000E+00  0.74175445607E+00  0.74175445607E+00  0.00000000000E+00 0.  1.
          2   -1    0    0  503    0 -0.00000000000E+00 -0.00000000000E+00 -0.84714492734E+03  0.84714492734E+03  0.00000000000E+00 0.  1.
         21    1    1    2  503  502  0.21689747469E+02 -0.12816026751E+01 -0.21177541688E+03  0.21288709413E+03  0.00000000000E+00 0.  1.
          2    1    1    2  501    0 -0.21689747469E+02  0.12816026751E+01 -0.63462775600E+03  0.63499958767E+03  0.00000000000E+00 0.  1.
<mgrwt>
<rscale>  2 0.21727578E+02</rscale>
<asrwt>0</asrwt>
<pdfrwt beam="1">  1       21 0.11411663E-03 0.21727578E+02</pdfrwt>
<pdfrwt beam="2">  1        2 0.13032935E+00 0.21727578E+02</pdfrwt>
<totfact> 0.29010373E+07</totfact>
</mgrwt>
</event>
<event>
 4    1  0.2177230E+006  0.2511856E+02  0.7546771E-02  0.1659305E+00
          2   -1    0    0  503    0 -0.00000000000E+00  0.00000000000E+00  0.91887523001E+02  0.91887523001E+02  0.00000000000E+00 0.  1.
         21   -1    0    0  501  502  0.00000000000E+00 -0.00000000000E+00 -0.22380307684E+02  0.22380307684E+02  0.00000000000E+00 0. -1.
         21    1    1    2  503  502 -0.16902405219E+02 -0.18580926868E+02 -0.12815028519E+02  0.28198707443E+02  0.00000000000E+00 0. -1.
          2    1    1    2  501    0  0.16902405219E+02  0.18580926868E+02  0.82322243836E+02  0.86069123242E+02  0.00000000000E+00 0.  1.
<mgrwt>
<rscale>  2 0.25118562E+02</rscale>
<asrwt>0</asrwt>
<pdfrwt beam="2">  1       21 0.34431243E-02 0.25118562E+02</pdfrwt>
<pdfrwt beam="1">  1        2 0.14136542E-01 0.25118562E+02</pdfrwt>
<totfact> 0.18799116E+06</totfact>
</mgrwt>
</event>
<event>
 4    1  0.2177230E+006  0.2263928E+02  0.7546771E-02  0.1697425E+00
         21   -1    0    0  501  502  0.00000000000E+00  0.00000000000E+00  0.89346049790E+00  0.89346049790E+00  0.00000000000E+00 0.  1.
          4   -1    0    0  503    0 -0.00000000000E+00 -0.00000000000E+00 -0.16114910095E+04  0.16114910095E+04  0.00000000000E+00 0. -1.
         21    1    1    2  503  502  0.59674139418E+01 -0.21838654877E+02 -0.15832106600E+03  0.15993153790E+03  0.00000000000E+00 0.  1.
          4    1    1    2  501    0 -0.59674139418E+01  0.21838654877E+02 -0.14522764830E+04  0.14524529321E+04  0.00000000000E+00 0. -1.
<mgrwt>
<rscale>  2 0.22639277E+02</rscale>
<asrwt>0</asrwt>
<pdfrwt beam="1">  1       21 0.13745689E-03 0.22639277E+02</pdfrwt>
<pdfrwt beam="2">  1        4 0.24791911E+00 0.22639277E+02</pdfrwt>
<totfact> 0.16563220E+05</totfact>
</mgrwt>
</event>
<event>
 4    1  0.2177230E+006  0.2081568E+02  0.7546771E-02  0.1729578E+00
          2   -1    0    0  503    0 -0.00000000000E+00  0.00000000000E+00  0.62326075145E+01  0.62326075145E+01  0.00000000000E+00 0. -1.
         21   -1    0    0  501  502  0.00000000000E+00 -0.00000000000E+00 -0.81335475632E+02  0.81335475632E+02  0.00000000000E+00 0.  1.
         21    1    1    2  503  502 -0.20743068308E+02  0.17370816327E+01 -0.54239159215E+02  0.58096288416E+02  0.00000000000E+00 0.  1.
          2    1    1    2  501    0  0.20743068308E+02 -0.17370816327E+01 -0.20863708903E+02  0.29471794730E+02  0.00000000000E+00 0. -1.
<mgrwt>
<rscale>  2 0.20815675E+02</rscale>
<asrwt>0</asrwt>
<pdfrwt beam="2">  1       21 0.12513149E-01 0.20815675E+02</pdfrwt>
<pdfrwt beam="1">  1        2 0.95886279E-03 0.20815675E+02</pdfrwt>
<totfact> 0.61151287E+06</totfact>
</mgrwt>
</event>
<event>
 4    1  0.2177230E+006  0.2703006E+02  0.7546771E-02  0.1633446E+00
         21   -1    0    0  501  502  0.00000000000E+00  0.00000000000E+00  0.24566429891E+03  0.24566429891E+03  0.00000000000E+00 0. -1.
          1   -1    0    0  503    0 -0.00000000000E+00 -0.00000000000E+00 -0.94813461506E+01  0.94813461506E+01  0.00000000000E+00 0. -1.
         21    1    1    2  503  502  0.26089068531E+02 -0.70699699665E+01  0.22377873317E+03  0.22540529140E+03  0.00000000000E+00 0. -1.
          1    1    1    2  501    0 -0.26089068531E+02  0.70699699665E+01  0.12404219588E+02  0.29740353659E+02  0.00000000000E+00 0. -1.
<mgrwt>
<rscale>  2 0.27030057E+02</rscale>
<asrwt>0</asrwt>
<pdfrwt beam="1">  1       21 0.37794503E-01 0.27030057E+02</pdfrwt>
<pdfrwt beam="2">  1        1 0.14586688E-02 0.27030057E+02</pdfrwt>
<totfact> 0.52102942E+05</totfact>
</mgrwt>
</event>
<event>
 4    1  0.2177230E+006  0.2366504E+02  0.7546771E-02  0.1680951E+00
          2   -1    0    0  502    0 -0.00000000000E+00  0.00000000000E+00  0.15808518309E+04  0.15808518309E+04  0.00000000000E+00 0.  1.
         21   -1    0    0  503  502  0.00000000000E+00 -0.00000000000E+00 -0.36403223619E+00  0.36403223619E+00  0.00000000000E+00 0.  1.
         21    1    1    2  503  501 -0.22041099225E+02  0.86153483444E+01  0.66071575322E+03  0.66113942617E+03  0.00000000000E+00 0.  1.
          2    1    1    2  501    0  0.22041099225E+02 -0.86153483444E+01  0.91977204548E+03  0.92007643700E+03  0.00000000000E+00 0.  1.
<mgrwt>
<rscale>  2 0.23665043E+02</rscale>
<asrwt>0</asrwt>
<pdfrwt beam="2">  1       21 0.56006225E-04 0.23665043E+02</pdfrwt>
<pdfrwt beam="1">  1        2 0.24320248E+00 0.23665043E+02</pdfrwt>
<totfact> 0.34498667E+07</totfact>
</mgrwt>
</event>
<event>
 4    1  0.2177230E+006  0.2499983E+02  0.7546771E-02  0.1661004E+00
         21   -1    0    0  501  502  0.00000000000E+00  0.00000000000E+00  0.70278365561E+02  0.70278365561E+02  0.00000000000E+00 0. -1.
          1   -1    0    0  503    0 -0.00000000000E+00 -0.00000000000E+00 -0.14271174964E+02  0.14271174964E+02  0.00000000000E+00 0. -1.
         21    1    1    2  503  502  0.15490301105E+02 -0.19622491553E+02  0.53955267725E+02  0.59465641495E+02  0.00000000000E+00 0. -1.
          1    1    1    2  501    0 -0.15490301105E+02  0.19622491553E+02  0.20519228720E+01  0.25083899030E+02  0.00000000000E+00 0. -1.
<mgrwt>
<rscale>  2 0.24999832E+02</rscale>
<asrwt>0</asrwt>
<pdfrwt beam="1">  1       21 0.10812056E-01 0.24999832E+02</pdfrwt>
<pdfrwt beam="2">  1        1 0.21955654E-02 0.24999832E+02</pdfrwt>
<totfact> 0.27101261E+06</totfact>
</mgrwt>
</event>
<event>
 4    1  0.2177230E+006  0.2110241E+02  0.7546771E-02  0.1724254E+00
         -2   -1    0    0    0  501 -0.00000000000E+00  0.00000000000E+00  0.61875164031E+02  0.61875164031E+02  0.00000000000E+00 0.  1.
         21   -1    0    0  501  502  0.00000000000E+00 -0.00000000000E+00 -0.66584978853E+02  0.66584978853E+02  0.00000000000E+00 0. -1.
         21    1    1    2  503  502 -0.15525573591E+02  0.14292240296E+02 -0.63014540663E+02  0.66454073638E+02  0.00000000000E+00 0. -1.
         -2    1    1    2    0  503  0.15525573591E+02 -0.14292240296E+02  0.58304725841E+02  0.62006069247E+02  0.00000000000E+00 0.  1.
<mgrwt>
<rscale>  2 0.21102407E+02</rscale>
<asrwt>0</asrwt>
<pdfrwt beam="2">  1       21 0.10243843E-01 0.21102407E+02</pdfrwt>
<pdfrwt beam="1">  1       -2 0.95192561E-02 0.21102407E+02</pdfrwt>
<totfact> 0.33118618E+05</totfact>
</mgrwt>
</event>
<event>
 4    1  0.2177230E+006  0.2632579E+02  0.7546771E-02  0.1642658E+00
         21   -1    0    0  501  502  0.00000000000E+00  0.00000000000E+00  0.12757273448E+02  0.12757273448E+02  0.00000000000E+00 0. -1.
          2   -1    0    0  503    0 -0.00000000000E+00 -0.00000000000E+00 -0.31734980260E+03  0.31734980260E+03  0.00000000000E+00 0.  1.
         21    1    1    2  503  502  0.26237533736E+02 -0.21538709270E+01 -0.20327556119E+01  0.26404155580E+02  0.00000000000E+00 0. -1.
          2    1    1    2  501    0 -0.26237533736E+02  0.21538709270E+01 -0.30255977354E+03  0.30370292047E+03  0.00000000000E+00 0.  1.
<mgrwt>
<rscale>  2 0.26325792E+02</rscale>
<asrwt>0</asrwt>
<pdfrwt beam="1">  1       21 0.19626572E-02 0.26325792E+02</pdfrwt>
<pdfrwt beam="2">  1        2 0.48823052E-01 0.26325792E+02</pdfrwt>
<totfact> 0.12574135E+06</totfact>
</mgrwt>
</event>
<event>
 4    1  0.2177230E+006  0.4540571E+02  0.7546771E-02  0.1471825E+00
         21   -1    0    0  503  502  0.00000000000E+00  0.00000000000E+00  0.38834263358E+01  0.38834263358E+01  0.00000000000E+00 0. -1.
          1   -1    0    0  502    0 -0.00000000000E+00 -0.00000000000E+00 -0.95286035268E+03  0.95286035268E+03  0.00000000000E+00 0. -1.
         21    1    1    2  503  501  0.13927319458E+02 -0.43216994735E+02 -0.15614853745E+03  0.16261624952E+03  0.00000000000E+00 0. -1.
          1    1    1    2  501    0 -0.13927319458E+02  0.43216994735E+02 -0.79282838889E+03  0.79412752949E+03  0.00000000000E+00 0. -1.
<mgrwt>
<rscale>  2 0.45405714E+02</rscale>
<asrwt>0</asrwt>
<pdfrwt beam="1">  1       21 0.59744992E-03 0.45405714E+02</pdfrwt>
<pdfrwt beam="2">  1        1 0.14659397E+00 0.45405714E+02</pdfrwt>
<totfact> 0.14447346E+06</totfact>
</mgrwt>
</event>
<event>
 4    1  0.2177230E+006  0.2783311E+02  0.7546771E-02  0.1623355E+00
          1   -1    0    0  502    0 -0.00000000000E+00  0.00000000000E+00  0.31626679023E+03  0.31626679023E+03  0.00000000000E+00 0. -1.
         21   -1    0    0  503  502  0.00000000000E+00 -0.00000000000E+00 -0.47592371885E+01  0.47592371885E+01  0.00000000000E+00 0. -1.
         21    1    1    2  503  501 -0.11000483957E+02  0.25566997190E+02  0.43931874881E+02  0.52006649798E+02  0.00000000000E+00 0. -1.
          1    1    1    2  501    0  0.11000483957E+02 -0.25566997190E+02  0.26757567816E+03  0.26901937762E+03  0.00000000000E+00 0. -1.
<mgrwt>
<rscale>  2 0.27833110E+02</rscale>
<asrwt>0</asrwt>
<pdfrwt beam="2">  1       21 0.73219059E-03 0.27833110E+02</pdfrwt>
<pdfrwt beam="1">  1        1 0.48656413E-01 0.27833110E+02</pdfrwt>
<totfact> 0.40489707E+06</totfact>
</mgrwt>
</event>
<event>
 4    1  0.2177230E+006  0.2710190E+02  0.7546771E-02  0.1632526E+00
         21   -1    0    0  501  502  0.00000000000E+00  0.00000000000E+00  0.74209476174E+02  0.74209476174E+02  0.00000000000E+00 0. -1.
         -3   -1    0    0    0  501 -0.00000000000E+00 -0.00000000000E+00 -0.95717493215E+02  0.95717493215E+02  0.00000000000E+00 0.  1.
         21    1    1    2  503  502 -0.11846995796E+02  0.24375429455E+02  0.69696734231E+02  0.74780663496E+02  0.00000000000E+00 0. -1.
         -3    1    1    2    0  503  0.11846995796E+02 -0.24375429455E+02 -0.91204751271E+02  0.95146305893E+02  0.00000000000E+00 0.  1.
<mgrwt>
<rscale>  2 0.27101898E+02</rscale>
<asrwt>0</asrwt>
<pdfrwt beam="1">  1       21 0.11416842E-01 0.27101898E+02</pdfrwt>
<pdfrwt beam="2">  1       -3 0.14725768E-01 0.27101898E+02</pdfrwt>
<totfact> 0.89228946E+04</totfact>
</mgrwt>
</event>
<event>
 4    1  0.2177230E+006  0.2298872E+02  0.7546771E-02  0.1691693E+00
         21   -1    0    0  501  502  0.00000000000E+00  0.00000000000E+00  0.63857288519E+01  0.63857288519E+01  0.00000000000E+00 0.  1.
          4   -1    0    0  503    0 -0.00000000000E+00 -0.00000000000E+00 -0.10503801806E+04  0.10503801806E+04  0.00000000000E+00 0. -1.
         21    1    1    2  503  502 -0.38025027239E+01  0.22672056065E+02 -0.14856998954E+02  0.27371729414E+02  0.00000000000E+00 0.  1.
          4    1    1    2  501    0  0.38025027239E+01 -0.22672056065E+02 -0.10291374528E+04  0.10293941800E+04  0.00000000000E+00 0. -1.
<mgrwt>
<rscale>  2 0.22988718E+02</rscale>
<asrwt>0</asrwt>
<pdfrwt beam="1">  1       21 0.98242059E-03 0.22988718E+02</pdfrwt>
<pdfrwt beam="2">  1        4 0.16159682E+00 0.22988718E+02</pdfrwt>
<totfact> 0.29075796E+04</totfact>
</mgrwt>
</event>
<event>
 4    1  0.2177230E+006  0.2452286E+02  0.7546771E-02  0.1667951E+00
         21   -1    0    0  501  502  0.00000000000E+00  0.00000000000E+00  0.13058638189E+01  0.13058638189E+01  0.00000000000E+00 0.  1.
          2   -1    0    0  503    0 -0.00000000000E+00 -0.00000000000E+00 -0.11497385543E+04  0.11497385543E+04  0.00000000000E+00 0.  1.
         21    1    1    2  503  502  0.23374598015E+02 -0.74161238312E+01 -0.12861920919E+03  0.13093613595E+03  0.00000000000E+00 0.  1.
          2    1    1    2  501    0 -0.23374598015E+02  0.74161238312E+01 -0.10198134813E+04  0.10201082821E+04  0.00000000000E+00 0.  1.
<mgrwt>
<rscale>  2 0.24522861E+02</rscale>
<asrwt>0</asrwt>
<pdfrwt beam="1">  1       21 0.20090182E-03 0.24522861E+02</pdfrwt>
<pdfrwt beam="2">  1        2 0.17688312E+00 0.24522861E+02</pdfrwt>
<totfact> 0.90910445E+06</totfact>
</mgrwt>
</event>
<event>
 4    1  0.2177230E+006  0.2238920E+02  0.7546771E-02  0.1701607E+00
         21   -1    0    0  501  502  0.00000000000E+00  0.00000000000E+00  0.15661262810E+01  0.15661262810E+01  0.00000000000E+00 0. -1.
          2   -1    0    0  503    0 -0.00000000000E+00 -0.00000000000E+00 -0.14565656215E+04  0.14565656215E+04  0.00000000000E+00 0.  1.
         21    1    1    2  503  502  0.14761486736E+02 -0.16833739816E+02 -0.83501235798E+02  0.86450752840E+02  0.00000000000E+00 0. -1.
          2    1    1    2  501    0 -0.14761486736E+02  0.16833739816E+02 -0.13714982594E+04  0.13716809950E+04  0.00000000000E+00 0.  1.
<mgrwt>
<rscale>  2 0.22389200E+02</rscale>
<asrwt>0</asrwt>
<pdfrwt beam="1">  1       21 0.24094243E-03 0.22389200E+02</pdfrwt>
<pdfrwt beam="2">  1        2 0.22408709E+00 0.22389200E+02</pdfrwt>
<totfact> 0.48469109E+06</totfact>
</mgrwt>
</event>
<event>
 4    1  0.2177230E+006  0.3439639E+02  0.7546771E-02  0.1554027E+00
         21   -1    0    0  501  502  0.00000000000E+00  0.00000000000E+00  0.22748899314E+01  0.22748899314E+01  0.00000000000E+00 0.  1.
          2   -1    0    0  503    0 -0.00000000000E+00 -0.00000000000E+00 -0.18849749825E+04  0.18849749825E+04  0.00000000000E+00 0.  1.
         21    1    1    2  503  502  0.32349932824E+02  0.11687322854E+02 -0.13838406253E+03  0.14259474195E+03  0.00000000000E+00 0.  1.
          2    1    1    2  501    0 -0.32349932824E+02 -0.11687322854E+02 -0.17443160300E+04  0.17446551305E+04  0.00000000000E+00 0.  1.
<mgrwt>
<rscale>  2 0.34396390E+02</rscale>
<asrwt>0</asrwt>
<pdfrwt beam="1">  1       21 0.34998161E-03 0.34396390E+02</pdfrwt>
<pdfrwt beam="2">  1        2 0.28999736E+00 0.34396390E+02</pdfrwt>
<totfact> 0.18866637E+06</totfact>
</mgrwt>
</event>
<event>
 4    1  0.2177230E+006  0.4932176E+02  0.7546771E-02  0.1449034E+00
          2   -1    0    0  503    0 -0.00000000000E+00  0.00000000000E+00  0.10362075011E+03  0.10362075011E+03  0.00000000000E+00 0. -1.
         21   -1    0    0  501  502  0.00000000000E+00 -0.00000000000E+00 -0.17266421140E+03  0.17266421140E+03  0.00000000000E+00 0. -1.
         21    1    1    2  503  502 -0.30932003147E+02  0.38416760107E+02 -0.16292995496E+03  0.17023162602E+03  0.00000000000E+00 0. -1.
          2    1    1    2  501    0  0.30932003147E+02 -0.38416760107E+02  0.93886493668E+02  0.10605333549E+03  0.00000000000E+00 0. -1.
<mgrwt>
<rscale>  2 0.49321763E+02</rscale>
<asrwt>0</asrwt>
<pdfrwt beam="2">  1       21 0.26563724E-01 0.49321763E+02</pdfrwt>
<pdfrwt beam="1">  1        2 0.15941654E-01 0.49321763E+02</pdfrwt>
<totfact> 0.57204137E+04</totfact>
</mgrwt>
</event>
<event>
 4    1  0.2177230E+006  0.2268901E+02  0.7546771E-02  0.1696601E+00
         -1   -1    0    0    0  501 -0.00000000000E+00  0.00000000000E+00  0.10821059851E+03  0.10821059851E+03  0.00000000000E+00 0.  1.
         21   -1    0    0  501  502  0.00000000000E+00 -0.00000000000E+00 -0.11250666819E+02  0.11250666819E+02  0.00000000000E+00 0.  1.
         21    1    1    2  503  502  0.60582191916E+00 -0.22680924868E+02  0.31022517959E+01  0.22900116578E+02  0.00000000000E+00 0.  1.
         -1    1    1    2    0  503 -0.60582191916E+00  0.22680924868E+02  0.93857679898E+02  0.96561148755E+02  0.00000000000E+00 0.  1.
<mgrwt>
<rscale>  2 0.22689014E+02</rscale>
<asrwt>0</asrwt>
<pdfrwt beam="2">  1       21 0.17308719E-02 0.22689014E+02</pdfrwt>
<pdfrwt beam="1">  1       -1 0.16647784E-01 0.22689014E+02</pdfrwt>
<totfact> 0.25868361E+06</totfact>
</mgrwt>
</event>
<event>
 4    1  0.2177230E+006  0.2080753E+02  0.7546771E-02  0.1729730E+00
         21   -1    0    0  501  502  0.00000000000E+00  0.00000000000E+00  0.19777937290E+02  0.19777937290E+02  0.00000000000E+00 0. -1.
          4   -1    0    0  503    0 -0.00000000000E+00 -0.00000000000E+00 -0.22130505670E+02  0.22130505670E+02  0.00000000000E+00 0. -1.
         21    1    1    2  503  502 -0.13037121140E+02  0.16216861404E+02  0.10049137251E+01  0.20831777961E+02  0.00000000000E+00 0. -1.
          4    1    1    2  501    0  0.13037121140E+02 -0.16216861404E+02 -0.33574821053E+01  0.21076664999E+02  0.00000000000E+00 0. -1.
<mgrwt>
<rscale>  2 0.20807526E+02</rscale>
<asrwt>0</asrwt>
<pdfrwt beam="1">  1       21 0.30427596E-02 0.20807526E+02</pdfrwt>
<pdfrwt beam="2">  1        4 0.34046932E-02 0.20807526E+02</pdfrwt>
<totfact> 0.55271699E+06</totfact>
</mgrwt>
</event>
<event>
 4    1  0.2177230E+006  0.5223034E+02  0.7546771E-02  0.1433670E+00
         21   -1    0    0  501  502  0.00000000000E+00  0.00000000000E+00  0.10930013318E+02  0.10930013318E+02  0.00000000000E+00 0.  1.
          2   -1    0    0  503    0 -0.00000000000E+00 -0.00000000000E+00 -0.21917132334E+04  0.21917132334E+04  0.00000000000E+00 0.  1.
         21    1    1    2  503  502  0.27327278296E+02 -0.44510993695E+02 -0.53673155434E+02  0.74892031039E+02  0.00000000000E+00 0.  1.
          2    1    1    2  501    0 -0.27327278296E+02  0.44510993695E+02 -0.21271100646E+04  0.21277512157E+04  0.00000000000E+00 0.  1.
<mgrwt>
<rscale>  2 0.52230343E+02</rscale>
<asrwt>0</asrwt>
<pdfrwt beam="1">  1       21 0.16815392E-02 0.52230343E+02</pdfrwt>
<pdfrwt beam="2">  1        2 0.33718692E+00 0.52230343E+02</pdfrwt>
<totfact> 0.12632633E+05</totfact>
</mgrwt>
</event>
<event>
 4    1  0.2177230E+006  0.2120419E+02  0.7546771E-02  0.1722390E+00
         21   -1    0    0  503  502  0.00000000000E+00  0.00000000000E+00  0.15490089392E+01  0.15490089392E+01  0.00000000000E+00 0. -1.
          2   -1    0    0  502    0 -0.00000000000E+00 -0.00000000000E+00 -0.40780347118E+03  0.40780347118E+03  0.00000000000E+00 0. -1.
         21    1    1    2  503  501 -0.88869561058E+01  0.19251999605E+02 -0.93242165622E+02  0.95622795020E+02  0.00000000000E+00 0. -1.
          2    1    1    2  501    0  0.88869561058E+01 -0.19251999605E+02 -0.31301229661E+03  0.31372968509E+03  0.00000000000E+00 0. -1.
<mgrwt>
<rscale>  2 0.21204185E+02</rscale>
<asrwt>0</asrwt>
<pdfrwt beam="1">  1       21 0.23830920E-03 0.21204185E+02</pdfrwt>
<pdfrwt beam="2">  1        2 0.62738960E-01 0.21204185E+02</pdfrwt>
<totfact> 0.21506939E+07</totfact>
</mgrwt>
</event>
<event>
 4    1  0.2177230E+006  0.2835294E+02  0.7546771E-02  0.1617042E+00
         21   -1    0    0  503  502  0.00000000000E+00  0.00000000000E+00  0.17978832782E+01  0.17978832782E+01  0.00000000000E+00 0. -1.
          2   -1    0    0  502    0 -0.00000000000E+00 -0.00000000000E+00 -0.94098255629E+03  0.94098255629E+03  0.00000000000E+00 0. -1.
         21    1    1    2  503  501  0.72172661723E+00 -0.28343751924E+02 -0.12809443434E+03  0.13119479133E+03  0.00000000000E+00 0. -1.
          2    1    1    2  501    0 -0.72172661723E+00  0.28343751924E+02 -0.81109023866E+03  0.81158564823E+03  0.00000000000E+00 0. -1.
<mgrwt>
<rscale>  2 0.28352939E+02</rscale>
<asrwt>0</asrwt>
<pdfrwt beam="1">  1       21 0.27659634E-03 0.28352939E+02</pdfrwt>
<pdfrwt beam="2">  1        2 0.14476712E+00 0.28352939E+02</pdfrwt>
<totfact> 0.76291155E+06</totfact>
</mgrwt>
</event>
<event>
 4    1  0.2177230E+006  0.2115524E+02  0.7546771E-02  0.1723285E+00
         21   -1    0    0  501  502  0.00000000000E+00  0.00000000000E+00  0.30470163726E+01  0.30470163726E+01  0.00000000000E+00 0. -1.
          2   -1    0    0  503    0 -0.00000000000E+00 -0.00000000000E+00 -0.40185390477E+03  0.40185390477E+03  0.00000000000E+00 0. -1.
         21    1    1    2  503  502 -0.13290238595E+02 -0.16459461070E+02 -0.38141107112E+02  0.43615230738E+02  0.00000000000E+00 0. -1.
          2    1    1    2  501    0  0.13290238595E+02  0.16459461070E+02 -0.36066578128E+03  0.36128569040E+03  0.00000000000E+00 0. -1.
<mgrwt>
<rscale>  2 0.21155243E+02</rscale>
<asrwt>0</asrwt>
<pdfrwt beam="1">  1       21 0.46877179E-03 0.21155243E+02</pdfrwt>
<pdfrwt beam="2">  1        2 0.61823672E-01 0.21155243E+02</pdfrwt>
<totfact> 0.81385990E+06</totfact>
</mgrwt>
</event>
<event>
 4    1  0.2177230E+006  0.4570540E+02  0.7546771E-02  0.1469985E+00
         21   -1    0    0  501  502  0.00000000000E+00  0.00000000000E+00  0.50303719292E+02  0.50303719292E+02  0.00000000000E+00 0. -1.
          2   -1    0    0  503    0 -0.00000000000E+00 -0.00000000000E+00 -0.21833049540E+03  0.21833049540E+03  0.00000000000E+00 0.  1.
         21    1    1    2  503  502 -0.36739242882E+02 -0.27188444511E+02  0.36856756775E+02  0.58714597865E+02  0.00000000000E+00 0. -1.
          2    1    1    2  501    0  0.36739242882E+02  0.27188444511E+02 -0.20488353288E+03  0.20991961682E+03  0.00000000000E+00 0.  1.
<mgrwt>
<rscale>  2 0.45705399E+02</rscale>
<asrwt>0</asrwt>
<pdfrwt beam="1">  1       21 0.77390338E-02 0.45705399E+02</pdfrwt>
<pdfrwt beam="2">  1        2 0.33589307E-01 0.45705399E+02</pdfrwt>
<totfact> 0.22065559E+05</totfact>
</mgrwt>
</event>
<event>
 4    1  0.2177230E+006  0.2558713E+02  0.7546771E-02  0.1652709E+00
          2   -1    0    0  503    0 -0.00000000000E+00  0.00000000000E+00  0.62073025929E+03  0.62073025929E+03  0.00000000000E+00 0. -1.
         21   -1    0    0  501  502  0.00000000000E+00 -0.00000000000E+00 -0.27906914060E+01  0.27906914060E+01  0.00000000000E+00 0.  1.
         21    1    1    2  503  502  0.13604919631E+02  0.21670424659E+02  0.63082811534E+02  0.68074534550E+02  0.00000000000E+00 0.  1.
          2    1    1    2  501    0 -0.13604919631E+02 -0.21670424659E+02  0.55485675635E+03  0.55544641614E+03  0.00000000000E+00 0. -1.
<mgrwt>
<rscale>  2 0.25587128E+02</rscale>
<asrwt>0</asrwt>
<pdfrwt beam="2">  1       21 0.42933763E-03 0.25587128E+02</pdfrwt>
<pdfrwt beam="1">  1        2 0.95496854E-01 0.25587128E+02</pdfrwt>
<totfact> 0.62560331E+06</totfact>
</mgrwt>
</event>
<event>
 4    1  0.2177230E+006  0.2619321E+02  0.7546771E-02  0.1644432E+00
         -4   -1    0    0    0  501 -0.00000000000E+00  0.00000000000E+00  0.29716664824E+02  0.29716664824E+02  0.00000000000E+00 0. -1.
         21   -1    0    0  501  502  0.00000000000E+00 -0.00000000000E+00 -0.16279187041E+03  0.16279187041E+03  0.00000000000E+00 0. -1.
         21    1    1    2  503  502  0.26191223844E+02  0.32267522076E+00 -0.15570551340E+03  0.15789329064E+03  0.00000000000E+00 0. -1.
         -4    1    1    2    0  503 -0.26191223844E+02 -0.32267522076E+00  0.22630307822E+02  0.34615244588E+02  0.00000000000E+00 0. -1.
<mgrwt>
<rscale>  2 0.26193211E+02</rscale>
<asrwt>0</asrwt>
<pdfrwt beam="2">  1       21 0.25044903E-01 0.26193211E+02</pdfrwt>
<pdfrwt beam="1">  1       -4 0.45717946E-02 0.26193211E+02</pdfrwt>
<totfact> 0.11937627E+05</totfact>
</mgrwt>
</event>
<event>
 4    1  0.2177230E+006  0.2939897E+02  0.7546771E-02  0.1604829E+00
          2   -1    0    0  502    0 -0.00000000000E+00  0.00000000000E+00  0.15730168025E+04  0.15730168025E+04  0.00000000000E+00 0. -1.
         21   -1    0    0  503  502  0.00000000000E+00 -0.00000000000E+00 -0.10701229300E+02  0.10701229300E+02  0.00000000000E+00 0.  1.
         21    1    1    2  503  501  0.97321089167E-01  0.29398805832E+02  0.98955911281E+01  0.31019703085E+02  0.00000000000E+00 0.  1.
          2    1    1    2  501    0 -0.97321089167E-01 -0.29398805832E+02  0.15524199821E+04  0.15526983288E+04  0.00000000000E+00 0. -1.
<mgrwt>
<rscale>  2 0.29398967E+02</rscale>
<asrwt>0</asrwt>
<pdfrwt beam="2">  1       21 0.16463442E-02 0.29398967E+02</pdfrwt>
<pdfrwt beam="1">  1        2 0.24200240E+00 0.29398967E+02</pdfrwt>
<totfact> 0.25301364E+05</totfact>
</mgrwt>
</event>
<event>
 4    1  0.2177230E+006  0.4115254E+02  0.7546771E-02  0.1499897E+00
          2   -1    0    0  503    0 -0.00000000000E+00  0.00000000000E+00  0.60544082154E+01  0.60544082154E+01  0.00000000000E+00 0.  1.
         21   -1    0    0  501  502  0.00000000000E+00 -0.00000000000E+00 -0.28096301532E+03  0.28096301532E+03  0.00000000000E+00 0.  1.
         21    1    1    2  503  502  0.25391356336E+02  0.32385341506E+02 -0.14700456559E+03  0.15265606318E+03  0.00000000000E+00 0.  1.
          2    1    1    2  501    0 -0.25391356336E+02 -0.32385341506E+02 -0.12790404152E+03  0.13436136036E+03  0.00000000000E+00 0.  1.
<mgrwt>
<rscale>  2 0.41152537E+02</rscale>
<asrwt>0</asrwt>
<pdfrwt beam="2">  1       21 0.43225081E-01 0.41152537E+02</pdfrwt>
<pdfrwt beam="1">  1        2 0.93144739E-03 0.41152537E+02</pdfrwt>
<totfact> 0.80278839E+05</totfact>
</mgrwt>
</event>
<event>
 4    1  0.2177230E+006  0.2672088E+02  0.7546771E-02  0.1637447E+00
          1   -1    0    0  502    0 -0.00000000000E+00  0.00000000000E+00  0.49019455336E+02  0.49019455336E+02  0.00000000000E+00 0. -1.
         21   -1    0    0  503  502  0.00000000000E+00 -0.00000000000E+00 -0.16781519414E+02  0.16781519414E+02  0.00000000000E+00 0. -1.
         21    1    1    2  503  501  0.23186289398E+02 -0.13281621169E+02  0.41640036825E+01  0.27043380032E+02  0.00000000000E+00 0. -1.
          1    1    1    2  501    0 -0.23186289398E+02  0.13281621169E+02  0.28073932240E+02  0.38757594718E+02  0.00000000000E+00 0. -1.
<mgrwt>
<rscale>  2 0.26720881E+02</rscale>
<asrwt>0</asrwt>
<pdfrwt beam="2">  1       21 0.25817722E-02 0.26720881E+02</pdfrwt>
<pdfrwt beam="1">  1        1 0.75414546E-02 0.26720881E+02</pdfrwt>
<totfact> 0.55609263E+06</totfact>
</mgrwt>
</event>
<event>
 4    1  0.2177230E+006  0.2461757E+02  0.7546771E-02  0.1666556E+00
          2   -1    0    0  503    0 -0.00000000000E+00  0.00000000000E+00  0.19573689520E+03  0.19573689520E+03  0.00000000000E+00 0. -1.
         21   -1    0    0  501  502  0.00000000000E+00 -0.00000000000E+00 -0.93298081532E+02  0.93298081532E+02  0.00000000000E+00 0. -1.
         21    1    1    2  503  502  0.16130715138E+02  0.18596370396E+02 -0.90879925946E+02  0.94155116180E+02  0.00000000000E+00 0. -1.
          2    1    1    2  501    0 -0.16130715138E+02 -0.18596370396E+02  0.19331873961E+03  0.19487986055E+03  0.00000000000E+00 0. -1.
<mgrwt>
<rscale>  2 0.24617574E+02</rscale>
<asrwt>0</asrwt>
<pdfrwt beam="2">  1       21 0.14353551E-01 0.24617574E+02</pdfrwt>
<pdfrwt beam="1">  1        2 0.30113368E-01 0.24617574E+02</pdfrwt>
<totfact> 0.82186091E+04</totfact>
</mgrwt>
</event>
<event>
 4    1  0.2177230E+006  0.2418611E+02  0.7546771E-02  0.1672975E+00
         21   -1    0    0  501  502  0.00000000000E+00  0.00000000000E+00  0.69849421714E+01  0.69849421714E+01  0.00000000000E+00 0.  1.
          4   -1    0    0  503    0 -0.00000000000E+00 -0.00000000000E+00 -0.10773052356E+03  0.10773052356E+03  0.00000000000E+00 0. -1.
         21    1    1    2  503  502 -0.58856271531E+01  0.23459060783E+02 -0.23309609674E+02  0.33590267086E+02  0.00000000000E+00 0.  1.
          4    1    1    2  501    0  0.58856271531E+01 -0.23459060783E+02 -0.77435971714E+02  0.81125198644E+02  0.00000000000E+00 0. -1.
<mgrwt>
<rscale>  2 0.24186115E+02</rscale>
<asrwt>0</asrwt>
<pdfrwt beam="1">  1       21 0.10746066E-02 0.24186115E+02</pdfrwt>
<pdfrwt beam="2">  1        4 0.16573925E-01 0.24186115E+02</pdfrwt>
<totfact> 0.23954440E+06</totfact>
</mgrwt>
</event>
<event>
 4    1  0.2177230E+006  0.2326266E+02  0.7546771E-02  0.1687287E+00
         21   -1    0    0  501  502  0.00000000000E+00  0.00000000000E+00  0.12898276415E+03  0.12898276415E+03  0.00000000000E+00 0.  1.
          1   -1    0    0  503    0 -0.00000000000E+00 -0.00000000000E+00 -0.23794410784E+03  0.23794410784E+03  0.00000000000E+00 0. -1.
         21    1    1    2  503  502  0.22788057185E+02 -0.46750407424E+01  0.12735811718E+03  0.12946521374E+03  0.00000000000E+00 0.  1.
          1    1    1    2  501    0 -0.22788057185E+02  0.46750407424E+01 -0.23631946087E+03  0.23746165825E+03  0.00000000000E+00 0. -1.
<mgrwt>
<rscale>  2 0.23262664E+02</rscale>
<asrwt>0</asrwt>
<pdfrwt beam="1">  1       21 0.19843502E-01 0.23262664E+02</pdfrwt>
<pdfrwt beam="2">  1        1 0.36606785E-01 0.23262664E+02</pdfrwt>
<totfact> 0.28642441E+04</totfact>
</mgrwt>
</event>
<event>
 4    1  0.2177230E+006  0.2926252E+02  0.7546771E-02  0.1606386E+00
         21   -1    0    0  501  502  0.00000000000E+00  0.00000000000E+00  0.49429903866E+02  0.49429903866E+02  0.00000000000E+00 0. -1.
          3   -1    0    0  503    0 -0.00000000000E+00 -0.00000000000E+00 -0.18079373636E+02  0.18079373636E+02  0.00000000000E+00 0. -1.
         21    1    1    2  503  502  0.27415321824E+02 -0.10232081825E+02  0.22577458505E+02  0.36959937794E+02  0.00000000000E+00 0. -1.
          3    1    1    2  501    0 -0.27415321824E+02  0.10232081825E+02  0.87730717250E+01  0.30549339709E+02  0.00000000000E+00 0. -1.
<mgrwt>
<rscale>  2 0.29262525E+02</rscale>
<asrwt>0</asrwt>
<pdfrwt beam="1">  1       21 0.76046005E-02 0.29262525E+02</pdfrwt>
<pdfrwt beam="2">  1        3 0.27814421E-02 0.29262525E+02</pdfrwt>
<totfact> 0.23466404E+06</totfact>
</mgrwt>
</event>
<event>
 4    1  0.2177230E+006  0.2327418E+02  0.7546771E-02  0.1687104E+00
          2   -1    0    0  502    0 -0.00000000000E+00  0.00000000000E+00  0.60488983172E+03  0.60488983172E+03  0.00000000000E+00 0.  1.
         21   -1    0    0  503  502  0.00000000000E+00 -0.00000000000E+00 -0.45903214190E+01  0.45903214190E+01  0.00000000000E+00 0.  1.
         21    1    1    2  503  501 -0.19070256460E+02 -0.13342136633E+02  0.26746343407E+02  0.35454959837E+02  0.00000000000E+00 0.  1.
          2    1    1    2  501    0  0.19070256460E+02  0.13342136633E+02  0.57355316689E+03  0.57402519330E+03  0.00000000000E+00 0.  1.
<mgrwt>
<rscale>  2 0.23274176E+02</rscale>
<asrwt>0</asrwt>
<pdfrwt beam="2">  1       21 0.70620377E-03 0.23274176E+02</pdfrwt>
<pdfrwt beam="1">  1        2 0.93059911E-01 0.23274176E+02</pdfrwt>
<totfact> 0.30098735E+06</totfact>
</mgrwt>
</event>
<event>
 4    1  0.2177230E+006  0.2373008E+02  0.7546771E-02  0.1679942E+00
         21   -1    0    0  503  502  0.00000000000E+00  0.00000000000E+00  0.61641628696E+02  0.61641628696E+02  0.00000000000E+00 0. -1.
         -4   -1    0    0    0  501 -0.00000000000E+00 -0.00000000000E+00 -0.10579500136E+02  0.10579500136E+02  0.00000000000E+00 0. -1.
         21    1    1    2  503  501  0.66940741005E+01 -0.22766338127E+02  0.38872743433E+02  0.45543462339E+02  0.00000000000E+00 0. -1.
         -4    1    1    2    0  502 -0.66940741005E+01  0.22766338127E+02  0.12189385127E+02  0.26677666494E+02  0.00000000000E+00 0. -1.
<mgrwt>
<rscale>  2 0.23730082E+02</rscale>
<asrwt>0</asrwt>
<pdfrwt beam="1">  1       21 0.94833273E-02 0.23730082E+02</pdfrwt>
<pdfrwt beam="2">  1       -4 0.16276154E-02 0.23730082E+02</pdfrwt>
<totfact> 0.28512608E+06</totfact>
</mgrwt>
</event>
<event>
 4    1  0.2177230E+006  0.2229229E+02  0.7546771E-02  0.1703245E+00
         -4   -1    0    0    0  501 -0.00000000000E+00  0.00000000000E+00  0.41398211698E+02  0.41398211698E+02  0.00000000000E+00 0. -1.
         21   -1    0    0  501  502  0.00000000000E+00 -0.00000000000E+00 -0.10969344244E+03  0.10969344244E+03  0.00000000000E+00 0.  1.
         21    1    1    2  503  502  0.22292248516E+02  0.42192266144E-01 -0.10544011726E+03  0.10777088870E+03  0.00000000000E+00 0.  1.
         -4    1    1    2    0  503 -0.22292248516E+02 -0.42192266144E-01  0.37144886514E+02  0.43320765439E+02  0.00000000000E+00 0. -1.
<mgrwt>
<rscale>  2 0.22292288E+02</rscale>
<asrwt>0</asrwt>
<pdfrwt beam="2">  1       21 0.16875914E-01 0.22292288E+02</pdfrwt>
<pdfrwt beam="1">  1       -4 0.63689557E-02 0.22292288E+02</pdfrwt>
<totfact> 0.13579885E+05</totfact>
</mgrwt>
</event>
<event>
 4    1  0.2177230E+006  0.2743504E+02  0.7546771E-02  0.1628304E+00
         -1   -1    0    0    0  501 -0.00000000000E+00  0.00000000000E+00  0.77639049508E+02  0.77639049508E+02  0.00000000000E+00 0.  1.
         21   -1    0    0  501  502  0.00000000000E+00 -0.00000000000E+00 -0.88131861089E+02  0.88131861089E+02  0.00000000000E+00 0.  1.
         21    1    1    2  503  502 -0.72505714827E+01  0.26459607925E+02 -0.83440326900E+02  0.87834900760E+02  0.00000000000E+00 0.  1.
         -1    1    1    2    0  503  0.72505714827E+01 -0.26459607925E+02  0.72947515319E+02  0.77936009838E+02  0.00000000000E+00 0.  1.
<mgrwt>
<rscale>  2 0.27435044E+02</rscale>
<asrwt>0</asrwt>
<pdfrwt beam="2">  1       21 0.13558748E-01 0.27435044E+02</pdfrwt>
<pdfrwt beam="1">  1       -1 0.11944469E-01 0.27435044E+02</pdfrwt>
<totfact> 0.16296813E+05</totfact>
</mgrwt>
</event>
<event>
 4    1  0.2177230E+006  0.2093183E+02  0.7546771E-02  0.1727408E+00
          2   -1    0    0  502    0 -0.00000000000E+00  0.00000000000E+00  0.32260149257E+03  0.32260149257E+03  0.00000000000E+00 0.  1.
         21   -1    0    0  503  502  0.00000000000E+00 -0.00000000000E+00 -0.16429165058E+02  0.16429165058E+02  0.00000000000E+00 0.  1.
         21    1    1    2  503  501  0.10965814217E+02 -0.17829532316E+02 -0.92713820734E+01  0.22893226719E+02  0.00000000000E+00 0.  1.
          2    1    1    2  501    0 -0.10965814217E+02  0.17829532316E+02  0.31544370958E+03  0.31613743091E+03  0.00000000000E+00 0.  1.
<mgrwt>
<rscale>  2 0.20931825E+02</rscale>
<asrwt>0</asrwt>
<pdfrwt beam="2">  1       21 0.25275641E-02 0.20931825E+02</pdfrwt>
<pdfrwt beam="1">  1        2 0.49630994E-01 0.20931825E+02</pdfrwt>
<totfact> 0.80150398E+05</totfact>
</mgrwt>
</event>
<event>
 4    1  0.2177230E+006  0.2012912E+02  0.7546771E-02  0.1742772E+00
         -2   -1    0    0    0  501 -0.00000000000E+00  0.00000000000E+00  0.32855035399E+02  0.32855035399E+02  0.00000000000E+00 0.  1.
         21   -1    0    0  501  502  0.00000000000E+00 -0.00000000000E+00 -0.34082949321E+03  0.34082949321E+03  0.00000000000E+00 0.  1.
         21    1    1    2  503  502 -0.24880063951E+01 -0.19974769728E+02 -0.33741804555E+03  0.33801792714E+03  0.00000000000E+00 0.  1.
         -2    1    1    2    0  503  0.24880063951E+01  0.19974769728E+02  0.29443587741E+02  0.35666601472E+02  0.00000000000E+00 0.  1.
<mgrwt>
<rscale>  2 0.20129123E+02</rscale>
<asrwt>0</asrwt>
<pdfrwt beam="2">  1       21 0.52435301E-01 0.20129123E+02</pdfrwt>
<pdfrwt beam="1">  1       -2 0.50546214E-02 0.20129123E+02</pdfrwt>
<totfact> 0.45307069E+04</totfact>
</mgrwt>
</event>
<event>
 4    1  0.2177230E+006  0.2845389E+02  0.7546771E-02  0.1615836E+00
         21   -1    0    0  503  502  0.00000000000E+00  0.00000000000E+00  0.64428635064E+01  0.64428635064E+01  0.00000000000E+00 0. -1.
         -1   -1    0    0    0  501 -0.00000000000E+00 -0.00000000000E+00 -0.21411949171E+03  0.21411949171E+03  0.00000000000E+00 0.  1.
         21    1    1    2  503  501 -0.22080473212E+02  0.17946489765E+02 -0.32955598936E+02  0.43539583064E+02  0.00000000000E+00 0. -1.
         -1    1    1    2    0  502  0.22080473212E+02 -0.17946489765E+02 -0.17472102927E+03  0.17702277215E+03  0.00000000000E+00 0.  1.
<mgrwt>
<rscale>  2 0.28453889E+02</rscale>
<asrwt>0</asrwt>
<pdfrwt beam="1">  1       21 0.99120965E-03 0.28453889E+02</pdfrwt>
<pdfrwt beam="2">  1       -1 0.32941464E-01 0.28453889E+02</pdfrwt>
<totfact> 0.22153897E+06</totfact>
</mgrwt>
</event>
<event>
 4    1  0.2177230E+006  0.2117156E+02  0.7546771E-02  0.1722986E+00
         21   -1    0    0  501  502  0.00000000000E+00  0.00000000000E+00  0.25402891830E+01  0.25402891830E+01  0.00000000000E+00 0.  1.
          1   -1    0    0  503    0 -0.00000000000E+00 -0.00000000000E+00 -0.92552776210E+03  0.92552776210E+03  0.00000000000E+00 0.  1.
         21    1    1    2  503  502  0.18734266492E+02 -0.98621551324E+01 -0.44030284162E+02  0.48855918457E+02  0.00000000000E+00 0.  1.
          1    1    1    2  501    0 -0.18734266492E+02  0.98621551324E+01 -0.87895718875E+03  0.87921213283E+03  0.00000000000E+00 0.  1.
<mgrwt>
<rscale>  2 0.21171557E+02</rscale>
<asrwt>0</asrwt>
<pdfrwt beam="1">  1       21 0.39081346E-03 0.21171557E+02</pdfrwt>
<pdfrwt beam="2">  1        1 0.14238898E+00 0.21171557E+02</pdfrwt>
<totfact> 0.24993318E+06</totfact>
</mgrwt>
</event>
<event>
 4    1  0.2177230E+006  0.3424791E+02  0.7546771E-02  0.1555383E+00
          2   -1    0    0  503    0 -0.00000000000E+00  0.00000000000E+00  0.63082172551E+03  0.63082172551E+03  0.00000000000E+00 0.  1.
         21   -1    0    0  501  502  0.00000000000E+00 -0.00000000000E+00 -0.31694026570E+01  0.31694026570E+01  0.00000000000E+00 0.  1.
         21    1    1    2  503  502 -0.35313349142E+01 -0.34065362027E+02  0.11002407245E+03  0.11523114047E+03  0.00000000000E+00 0.  1.
          2    1    1    2  501    0  0.35313349142E+01  0.34065362027E+02  0.51762825040E+03  0.51875998769E+03  0.00000000000E+00 0.  1.
<mgrwt>
<rscale>  2 0.34247908E+02</rscale>
<asrwt>0</asrwt>
<pdfrwt beam="2">  1       21 0.48760091E-03 0.34247908E+02</pdfrwt>
<pdfrwt beam="1">  1        2 0.97049396E-01 0.34247908E+02</pdfrwt>
<totfact> 0.54225036E+06</totfact>
</mgrwt>
</event>
<event>
 4    1  0.2177230E+006  0.2248972E+02  0.7546771E-02  0.1699918E+00
         21   -1    0    0  501  502  0.00000000000E+00  0.00000000000E+00  0.49260927609E+00  0.49260927609E+00  0.00000000000E+00 0. -1.
          1   -1    0    0  503    0 -0.00000000000E+00 -0.00000000000E+00 -0.10352898881E+04  0.10352898881E+04  0.00000000000E+00 0. -1.
         21    1    1    2  503  502 -0.22473195273E+02 -0.86198943967E+00 -0.56442964382E+03  0.56487751801E+03  0.00000000000E+00 0. -1.
          1    1    1    2  501    0  0.22473195273E+02  0.86198943967E+00 -0.47036763497E+03  0.47090497933E+03  0.00000000000E+00 0. -1.
<mgrwt>
<rscale>  2 0.22489721E+02</rscale>
<asrwt>0</asrwt>
<pdfrwt beam="1">  1       21 0.75786182E-04 0.22489721E+02</pdfrwt>
<pdfrwt beam="2">  1        1 0.15927507E+00 0.22489721E+02</pdfrwt>
<totfact> 0.22595934E+07</totfact>
</mgrwt>
</event>
<event>
 4    1  0.2177230E+006  0.2184093E+02  0.7546771E-02  0.1711018E+00
         21   -1    0    0  501  502  0.00000000000E+00  0.00000000000E+00  0.20328599930E+01  0.20328599930E+01  0.00000000000E+00 0.  1.
          2   -1    0    0  503    0 -0.00000000000E+00 -0.00000000000E+00 -0.40204814336E+03  0.40204814336E+03  0.00000000000E+00 0.  1.
         21    1    1    2  503  502  0.65305682334E+00  0.21831166055E+02 -0.69641530890E+02  0.72986088532E+02  0.00000000000E+00 0.  1.
          2    1    1    2  501    0 -0.65305682334E+00 -0.21831166055E+02 -0.33037375247E+03  0.33109491482E+03  0.00000000000E+00 0.  1.
<mgrwt>
<rscale>  2 0.21840932E+02</rscale>
<asrwt>0</asrwt>
<pdfrwt beam="1">  1       21 0.31274762E-03 0.21840932E+02</pdfrwt>
<pdfrwt beam="2">  1        2 0.61853574E-01 0.21840932E+02</pdfrwt>
<totfact> 0.14833932E+07</totfact>
</mgrwt>
</event>
<event>
 4    1  0.2177230E+006  0.3063959E+02  0.7546771E-02  0.1591125E+00
          1   -1    0    0  502    0 -0.00000000000E+00  0.00000000000E+00  0.21578061277E+04  0.21578061277E+04  0.00000000000E+00 0.  1.
         21   -1    0    0  503  502  0.00000000000E+00 -0.00000000000E+00 -0.74811140027E+00  0.74811140027E+00  0.00000000000E+00 0.  1.
         21    1    1    2  503  501  0.68475237377E+01 -0.29864621818E+02  0.38036936811E+03  0.38160141563E+03  0.00000000000E+00 0.  1.
          1    1    1    2  501    0 -0.68475237377E+01  0.29864621818E+02  0.17766886482E+04  0.17769528235E+04  0.00000000000E+00 0.  1.
<mgrwt>
<rscale>  2 0.30639586E+02</rscale>
<asrwt>0</asrwt>
<pdfrwt beam="2">  1       21 0.11509579E-03 0.30639586E+02</pdfrwt>
<pdfrwt beam="1">  1        1 0.33196519E+00 0.30639586E+02</pdfrwt>
<totfact> 0.27501851E+06</totfact>
</mgrwt>
</event>
<event>
 4    1  0.2177230E+006  0.2044737E+02  0.7546771E-02  0.1736575E+00
         -3   -1    0    0    0  501 -0.00000000000E+00  0.00000000000E+00  0.12405510262E+01  0.12405510262E+01  0.00000000000E+00 0. -1.
         21   -1    0    0  503  502  0.00000000000E+00 -0.00000000000E+00 -0.50830743963E+03  0.50830743963E+03  0.00000000000E+00 0.  1.
         21    1    1    2  503  501 -0.20403222650E+02  0.13429124794E+01 -0.40142729792E+03  0.40194772101E+03  0.00000000000E+00 0.  1.
         -3    1    1    2    0  502  0.20403222650E+02 -0.13429124794E+01 -0.10563959068E+03  0.10760026964E+03  0.00000000000E+00 0. -1.
<mgrwt>
<rscale>  2 0.20447369E+02</rscale>
<asrwt>0</asrwt>
<pdfrwt beam="2">  1       21 0.78201078E-01 0.20447369E+02</pdfrwt>
<pdfrwt beam="1">  1       -3 0.19085417E-03 0.20447369E+02</pdfrwt>
<totfact> 0.13967388E+06</totfact>
</mgrwt>
</event>
<event>
 4    1  0.2177230E+006  0.2073296E+02  0.7546771E-02  0.1731133E+00
          2   -1    0    0  503    0 -0.00000000000E+00  0.00000000000E+00  0.28392627392E+03  0.28392627392E+03  0.00000000000E+00 0.  1.
         21   -1    0    0  501  502  0.00000000000E+00 -0.00000000000E+00 -0.18048360503E+02  0.18048360503E+02  0.00000000000E+00 0. -1.
         21    1    1    2  503  502  0.14542744773E+02 -0.14777155750E+02 -0.11576962612E+02  0.23746195925E+02  0.00000000000E+00 0. -1.
          2    1    1    2  501    0 -0.14542744773E+02  0.14777155750E+02  0.27745487602E+03  0.27822843850E+03  0.00000000000E+00 0.  1.
<mgrwt>
<rscale>  2 0.20732963E+02</rscale>
<asrwt>0</asrwt>
<pdfrwt beam="2">  1       21 0.27766710E-02 0.20732963E+02</pdfrwt>
<pdfrwt beam="1">  1        2 0.43680962E-01 0.20732963E+02</pdfrwt>
<totfact> 0.78417475E+05</totfact>
</mgrwt>
</event>
<event>
 4    1  0.2177230E+006  0.4032472E+02  0.7546771E-02  0.1505835E+00
         21   -1    0    0  503  502  0.00000000000E+00  0.00000000000E+00  0.66094515122E+01  0.66094515122E+01  0.00000000000E+00 0. -1.
          1   -1    0    0  502    0 -0.00000000000E+00 -0.00000000000E+00 -0.31999310210E+03  0.31999310210E+03  0.00000000000E+00 0.  1.
         21    1    1    2  503  501  0.18541252375E+02  0.35809290090E+02 -0.78178273520E+02  0.87965480428E+02  0.00000000000E+00 0. -1.
          1    1    1    2  501    0 -0.18541252375E+02 -0.35809290090E+02 -0.23520537707E+03  0.23863707318E+03  0.00000000000E+00 0.  1.
<mgrwt>
<rscale>  2 0.40324723E+02</rscale>
<asrwt>0</asrwt>
<pdfrwt beam="1">  1       21 0.10168388E-02 0.40324723E+02</pdfrwt>
<pdfrwt beam="2">  1        1 0.49229701E-01 0.40324723E+02</pdfrwt>
<totfact> 0.26187905E+06</totfact>
</mgrwt>
</event>
<event>
 4    1  0.2177230E+006  0.2947105E+02  0.7546771E-02  0.1604010E+00
         21   -1    0    0  503  502  0.00000000000E+00  0.00000000000E+00  0.15587373710E+01  0.15587373710E+01  0.00000000000E+00 0. -1.
          2   -1    0    0  502    0 -0.00000000000E+00 -0.00000000000E+00 -0.12522474434E+04  0.12522474434E+04  0.00000000000E+00 0. -1.
         21    1    1    2  503  501 -0.10701113454E+02  0.27459584226E+02 -0.15829827821E+03  0.16101828306E+03  0.00000000000E+00 0. -1.
          2    1    1    2  501    0  0.10701113454E+02 -0.27459584226E+02 -0.10923904278E+04  0.10927878977E+04  0.00000000000E+00 0. -1.
<mgrwt>
<rscale>  2 0.29471047E+02</rscale>
<asrwt>0</asrwt>
<pdfrwt beam="1">  1       21 0.23980538E-03 0.29471047E+02</pdfrwt>
<pdfrwt beam="2">  1        2 0.19265375E+00 0.29471047E+02</pdfrwt>
<totfact> 0.64820076E+06</totfact>
</mgrwt>
</event>
<event>
 4    1  0.2177230E+006  0.2046973E+02  0.7546771E-02  0.1736145E+00
         -4   -1    0    0    0  501 -0.00000000000E+00  0.00000000000E+00  0.41656955317E+03  0.41656955317E+03  0.00000000000E+00 0. -1.
         21   -1    0    0  501  502  0.00000000000E+00 -0.00000000000E+00 -0.30022403424E+01  0.30022403424E+01  0.00000000000E+00 0. -1.
         21    1    1    2  503  502 -0.15064000545E+02 -0.13859504532E+02  0.35713056495E+02  0.41163483605E+02  0.00000000000E+00 0. -1.
         -4    1    1    2    0  503  0.15064000545E+02  0.13859504532E+02  0.37785425634E+03  0.37840830991E+03  0.00000000000E+00 0. -1.
<mgrwt>
<rscale>  2 0.20469733E+02</rscale>
<asrwt>0</asrwt>
<pdfrwt beam="2">  1       21 0.46188346E-03 0.20469733E+02</pdfrwt>
<pdfrwt beam="1">  1       -4 0.64087578E-01 0.20469733E+02</pdfrwt>
<totfact> 0.65434720E+05</totfact>
</mgrwt>
</event>
<event>
 4    1  0.2177230E+006  0.2364689E+02  0.7546771E-02  0.1681234E+00
         21   -1    0    0  503  502  0.00000000000E+00  0.00000000000E+00  0.16302799849E+03  0.16302799849E+03  0.00000000000E+00 0.  1.
         -1   -1    0    0    0  501 -0.00000000000E+00 -0.00000000000E+00 -0.62082216494E+02  0.62082216494E+02  0.00000000000E+00 0.  1.
         21    1    1    2  503  501  0.17660318985E+02  0.15725403807E+02  0.15987458854E+03  0.16161392036E+03  0.00000000000E+00 0.  1.
         -1    1    1    2    0  502 -0.17660318985E+02 -0.15725403807E+02 -0.58928806542E+02  0.63496294632E+02  0.00000000000E+00 0.  1.
<mgrwt>
<rscale>  2 0.23646885E+02</rscale>
<asrwt>0</asrwt>
<pdfrwt beam="1">  1       21 0.25081230E-01 0.23646885E+02</pdfrwt>
<pdfrwt beam="2">  1       -1 0.95511103E-02 0.23646885E+02</pdfrwt>
<totfact> 0.75815784E+04</totfact>
</mgrwt>
</event>
<event>
 4    1  0.2177230E+006  0.2048615E+02  0.7546771E-02  0.1735830E+00
          1   -1    0    0  503    0 -0.00000000000E+00  0.00000000000E+00  0.28211538165E+03  0.28211538165E+03  0.00000000000E+00 0.  1.
         21   -1    0    0  501  502  0.00000000000E+00 -0.00000000000E+00 -0.21310874877E+01  0.21310874877E+01  0.00000000000E+00 0.  1.
         21    1    1    2  503  502  0.10397841619E+02 -0.17651268479E+02  0.61896744405E+02  0.65198844754E+02  0.00000000000E+00 0.  1.
          1    1    1    2  501    0 -0.10397841619E+02  0.17651268479E+02  0.21808754976E+03  0.21904762438E+03  0.00000000000E+00 0.  1.
<mgrwt>
<rscale>  2 0.20486151E+02</rscale>
<asrwt>0</asrwt>
<pdfrwt beam="2">  1       21 0.32785984E-03 0.20486151E+02</pdfrwt>
<pdfrwt beam="1">  1        1 0.43402337E-01 0.20486151E+02</pdfrwt>
<totfact> 0.13934123E+07</totfact>
</mgrwt>
</event>
<event>
 4    1  0.2177230E+006  0.2456350E+02  0.7546771E-02  0.1667352E+00
          1   -1    0    0  502    0 -0.00000000000E+00  0.00000000000E+00  0.10040578334E+03  0.10040578334E+03  0.00000000000E+00 0. -1.
         21   -1    0    0  503  502  0.00000000000E+00 -0.00000000000E+00 -0.27806770359E+02  0.27806770359E+02  0.00000000000E+00 0.  1.
         21    1    1    2  503  501 -0.23387758898E+02  0.75085427632E+01 -0.20458694875E+02  0.31967540986E+02  0.00000000000E+00 0.  1.
          1    1    1    2  501    0  0.23387758898E+02 -0.75085427632E+01  0.93057707855E+02  0.96245012712E+02  0.00000000000E+00 0. -1.
<mgrwt>
<rscale>  2 0.24563499E+02</rscale>
<asrwt>0</asrwt>
<pdfrwt beam="2">  1       21 0.42779647E-02 0.24563499E+02</pdfrwt>
<pdfrwt beam="1">  1        1 0.15447043E-01 0.24563499E+02</pdfrwt>
<totfact> 0.10116601E+06</totfact>
</mgrwt>
</event>
<event>
 4    1  0.2177230E+006  0.2169768E+02  0.7546771E-02  0.1713534E+00
          1   -1    0    0  502    0 -0.00000000000E+00  0.00000000000E+00  0.11948060372E+03  0.11948060372E+03  0.00000000000E+00 0.  1.
         21   -1    0    0  503  502  0.00000000000E+00 -0.00000000000E+00 -0.25495462771E+02  0.25495462771E+02  0.00000000000E+00 0.  1.
         21    1    1    2  503  501 -0.63431287000E+01  0.20749793796E+02 -0.19659023039E+02  0.29279112198E+02  0.00000000000E+00 0.  1.
          1    1    1    2  501    0  0.63431287000E+01 -0.20749793796E+02  0.11364416399E+03  0.11569695429E+03  0.00000000000E+00 0.  1.
<mgrwt>
<rscale>  2 0.21697678E+02</rscale>
<asrwt>0</asrwt>
<pdfrwt beam="2">  1       21 0.39223790E-02 0.21697678E+02</pdfrwt>
<pdfrwt beam="1">  1        1 0.18381631E-01 0.21697678E+02</pdfrwt>
<totfact> 0.91639115E+05</totfact>
</mgrwt>
</event>
<event>
 4    1  0.2177230E+006  0.4762318E+02  0.7546771E-02  0.1458600E+00
          3   -1    0    0  503    0 -0.00000000000E+00  0.00000000000E+00  0.84835881023E+01  0.84835881023E+01  0.00000000000E+00 0. -1.
         21   -1    0    0  501  502  0.00000000000E+00 -0.00000000000E+00 -0.68260555708E+03  0.68260555708E+03  0.00000000000E+00 0. -1.
         21    1    1    2  503  502 -0.15212525691E+02  0.45128107068E+02 -0.60657683242E+03  0.60844344077E+03  0.00000000000E+00 0. -1.
          3    1    1    2  501    0  0.15212525691E+02 -0.45128107068E+02 -0.67545136558E+02  0.82645704414E+02  0.00000000000E+00 0. -1.
<mgrwt>
<rscale>  2 0.47623177E+02</rscale>
<asrwt>0</asrwt>
<pdfrwt beam="2">  1       21 0.10501628E+00 0.47623177E+02</pdfrwt>
<pdfrwt beam="1">  1        3 0.13051669E-02 0.47623177E+02</pdfrwt>
<totfact> 0.57627623E+04</totfact>
</mgrwt>
</event>
<event>
 4    1  0.2177230E+006  0.2589382E+02  0.7546771E-02  0.1648486E+00
         21   -1    0    0  501  502  0.00000000000E+00  0.00000000000E+00  0.53933247806E+03  0.53933247806E+03  0.00000000000E+00 0. -1.
          2   -1    0    0  503    0 -0.00000000000E+00 -0.00000000000E+00 -0.22191116866E+01  0.22191116866E+01  0.00000000000E+00 0.  1.
         21    1    1    2  503  502 -0.15144538777E+02  0.21003158934E+02  0.44812469850E+03  0.44887218130E+03  0.00000000000E+00 0. -1.
          2    1    1    2  501    0  0.15144538777E+02 -0.21003158934E+02  0.88988667873E+02  0.92679408445E+02  0.00000000000E+00 0.  1.
<mgrwt>
<rscale>  2 0.25893817E+02</rscale>
<asrwt>0</asrwt>
<pdfrwt beam="1">  1       21 0.82974123E-01 0.25893817E+02</pdfrwt>
<pdfrwt beam="2">  1        2 0.34140223E-03 0.25893817E+02</pdfrwt>
<totfact> 0.74760396E+05</totfact>
</mgrwt>
</event>
<event>
 4    1  0.2177230E+006  0.3814450E+02  0.7546771E-02  0.1522327E+00
         21   -1    0    0  503  502  0.00000000000E+00  0.00000000000E+00  0.86945095160E+02  0.86945095160E+02  0.00000000000E+00 0. -1.
          1   -1    0    0  502    0 -0.00000000000E+00 -0.00000000000E+00 -0.19231818481E+02  0.19231818481E+02  0.00000000000E+00 0. -1.
         21    1    1    2  503  501 -0.55968252280E+01  0.37731661784E+02  0.52986279793E+02  0.65288196483E+02  0.00000000000E+00 0. -1.
          1    1    1    2  501    0  0.55968252280E+01 -0.37731661784E+02  0.14726996886E+02  0.40888717159E+02  0.00000000000E+00 0. -1.
<mgrwt>
<rscale>  2 0.38144498E+02</rscale>
<asrwt>0</asrwt>
<pdfrwt beam="1">  1       21 0.13376168E-01 0.38144498E+02</pdfrwt>
<pdfrwt beam="2">  1        1 0.29587414E-02 0.38144498E+02</pdfrwt>
<totfact> 0.13970356E+06</totfact>
</mgrwt>
</event>
<event>
 4    1  0.2177230E+006  0.2160456E+02  0.7546771E-02  0.1715182E+00
         21   -1    0    0  501  502  0.00000000000E+00  0.00000000000E+00  0.12621994216E+02  0.12621994216E+02  0.00000000000E+00 0.  1.
          2   -1    0    0  503    0 -0.00000000000E+00 -0.00000000000E+00 -0.50694641775E+02  0.50694641775E+02  0.00000000000E+00 0.  1.
         21    1    1    2  503  502  0.40657636121E+01  0.21218539589E+02 -0.25696957800E+01  0.21756842428E+02  0.00000000000E+00 0.  1.
          2    1    1    2  501    0 -0.40657636121E+01 -0.21218539589E+02 -0.35502951778E+02  0.41559793563E+02  0.00000000000E+00 0.  1.
<mgrwt>
<rscale>  2 0.21604556E+02</rscale>
<asrwt>0</asrwt>
<pdfrwt beam="1">  1       21 0.19418452E-02 0.21604556E+02</pdfrwt>
<pdfrwt beam="2">  1        2 0.77991758E-02 0.21604556E+02</pdfrwt>
<totfact> 0.86663238E+06</totfact>
</mgrwt>
</event>
<event>
 4    1  0.2177230E+006  0.2146812E+02  0.7546771E-02  0.1717616E+00
         21   -1    0    0  501  502  0.00000000000E+00  0.00000000000E+00  0.44656841167E+00  0.44656841167E+00  0.00000000000E+00 0.  1.
          2   -1    0    0  503    0 -0.00000000000E+00 -0.00000000000E+00 -0.12197795309E+04  0.12197795309E+04  0.00000000000E+00 0. -1.
         21    1    1    2  503  502 -0.20928830334E+02  0.47816621571E+01 -0.37031410318E+03  0.37093586406E+03  0.00000000000E+00 0.  1.
          2    1    1    2  501    0  0.20928830334E+02 -0.47816621571E+01 -0.84901885931E+03  0.84929023526E+03  0.00000000000E+00 0. -1.
<mgrwt>
<rscale>  2 0.21468121E+02</rscale>
<asrwt>0</asrwt>
<pdfrwt beam="1">  1       21 0.68705206E-04 0.21468121E+02</pdfrwt>
<pdfrwt beam="2">  1        2 0.18765191E+00 0.21468121E+02</pdfrwt>
<totfact> 0.37501211E+07</totfact>
</mgrwt>
</event>
<event>
 4    1  0.2177230E+006  0.2445377E+02  0.7546771E-02  0.1668974E+00
         21   -1    0    0  501  502  0.00000000000E+00  0.00000000000E+00  0.19406595232E+02  0.19406595232E+02  0.00000000000E+00 0.  1.
          4   -1    0    0  503    0 -0.00000000000E+00 -0.00000000000E+00 -0.34849943213E+02  0.34849943213E+02  0.00000000000E+00 0. -1.
         21    1    1    2  503  502  0.18064492196E+02  0.16482141786E+02  0.15107472317E+01  0.24500392514E+02  0.00000000000E+00 0.  1.
          4    1    1    2  501    0 -0.18064492196E+02 -0.16482141786E+02 -0.16954095212E+02  0.29756145930E+02  0.00000000000E+00 0. -1.
<mgrwt>
<rscale>  2 0.24453770E+02</rscale>
<asrwt>0</asrwt>
<pdfrwt beam="1">  1       21 0.29856300E-02 0.24453770E+02</pdfrwt>
<pdfrwt beam="2">  1        4 0.53615297E-02 0.24453770E+02</pdfrwt>
<totfact> 0.30821925E+06</totfact>
</mgrwt>
</event>
<event>
 4    1  0.2177230E+006  0.2387127E+02  0.7546771E-02  0.1677764E+00
         21   -1    0    0  501  502  0.00000000000E+00  0.00000000000E+00  0.32780595755E+02  0.32780595755E+02  0.00000000000E+00 0. -1.
          1   -1    0    0  503    0 -0.00000000000E+00 -0.00000000000E+00 -0.97090107055E+03  0.97090107055E+03  0.00000000000E+00 0. -1.
         21    1    1    2  503  502 -0.22638334937E+02 -0.75725496443E+01  0.28267729154E+02  0.36998678738E+02  0.00000000000E+00 0. -1.
          1    1    1    2  501    0  0.22638334937E+02  0.75725496443E+01 -0.96638820395E+03  0.96668298757E+03  0.00000000000E+00 0. -1.
<mgrwt>
<rscale>  2 0.23871274E+02</rscale>
<asrwt>0</asrwt>
<pdfrwt beam="1">  1       21 0.50431683E-02 0.23871274E+02</pdfrwt>
<pdfrwt beam="2">  1        1 0.14936940E+00 0.23871274E+02</pdfrwt>
<totfact> 0.48492771E+04</totfact>
</mgrwt>
</event>
<event>
 4    1  0.2177230E+006  0.4159747E+02  0.7546771E-02  0.1496774E+00
         21   -1    0    0  503  502  0.00000000000E+00  0.00000000000E+00  0.39141130378E+02  0.39141130378E+02  0.00000000000E+00 0.  1.
          4   -1    0    0  502    0 -0.00000000000E+00 -0.00000000000E+00 -0.19584062226E+03  0.19584062226E+03  0.00000000000E+00 0.  1.
         21    1    1    2  503  501 -0.40133681751E+02  0.10937891127E+02  0.25033251604E+02  0.48549084019E+02  0.00000000000E+00 0.  1.
          4    1    1    2  501    0  0.40133681751E+02 -0.10937891127E+02 -0.18173274348E+03  0.18643266861E+03  0.00000000000E+00 0.  1.
<mgrwt>
<rscale>  2 0.41597474E+02</rscale>
<asrwt>0</asrwt>
<pdfrwt beam="1">  1       21 0.60217125E-02 0.41597474E+02</pdfrwt>
<pdfrwt beam="2">  1        4 0.30129326E-01 0.41597474E+02</pdfrwt>
<totfact> 0.67289011E+04</totfact>
</mgrwt>
</event>
<event>
 4    1  0.2177230E+006  0.3099119E+02  0.7546771E-02  0.1587384E+00
          2   -1    0    0  503    0 -0.00000000000E+00  0.00000000000E+00  0.19086581680E+04  0.19086581680E+04  0.00000000000E+00 0.  1.
         21   -1    0    0  501  502  0.00000000000E+00 -0.00000000000E+00 -0.25450652887E+02  0.25450652887E+02  0.00000000000E+00 0. -1.
         21    1    1    2  503  502 -0.30652112326E+02  0.45718342452E+01 -0.15842651620E+02  0.34805793610E+02  0.00000000000E+00 0. -1.
          2    1    1    2  501    0  0.30652112326E+02 -0.45718342452E+01  0.18990501667E+04  0.18993030273E+04  0.00000000000E+00 0.  1.
<mgrwt>
<rscale>  2 0.30991187E+02</rscale>
<asrwt>0</asrwt>
<pdfrwt beam="2">  1       21 0.39154866E-02 0.30991187E+02</pdfrwt>
<pdfrwt beam="1">  1        2 0.29363961E+00 0.30991187E+02</pdfrwt>
<totfact> 0.45397350E+04</totfact>
</mgrwt>
</event>
<event>
 4    1  0.2177230E+006  0.2512515E+02  0.7546771E-02  0.1659211E+00
         -2   -1    0    0    0  501 -0.00000000000E+00  0.00000000000E+00  0.10203444021E+03  0.10203444021E+03  0.00000000000E+00 0. -1.
         21   -1    0    0  501  502  0.00000000000E+00 -0.00000000000E+00 -0.82722928460E+01  0.82722928460E+01  0.00000000000E+00 0.  1.
         21    1    1    2  503  502  0.23090607322E+02  0.99043866923E+01  0.19188906101E+02  0.31614666527E+02  0.00000000000E+00 0.  1.
         -2    1    1    2    0  503 -0.23090607322E+02 -0.99043866923E+01  0.74573241262E+02  0.78692066529E+02  0.00000000000E+00 0. -1.
<mgrwt>
<rscale>  2 0.25125147E+02</rscale>
<asrwt>0</asrwt>
<pdfrwt beam="2">  1       21 0.12726605E-02 0.25125147E+02</pdfrwt>
<pdfrwt beam="1">  1       -2 0.15697605E-01 0.25125147E+02</pdfrwt>
<totfact> 0.43053808E+06</totfact>
</mgrwt>
</event>
<event>
 4    1  0.2177230E+006  0.3846014E+02  0.7546771E-02  0.1519859E+00
          2   -1    0    0  503    0 -0.00000000000E+00  0.00000000000E+00  0.73264940864E+03  0.73264940864E+03  0.00000000000E+00 0.  1.
         21   -1    0    0  501  502  0.00000000000E+00 -0.00000000000E+00 -0.50916195377E+01  0.50916195377E+01  0.00000000000E+00 0.  1.
         21    1    1    2  503  502  0.11596023346E+02 -0.36670354615E+02  0.77226605124E+02  0.86273583466E+02  0.00000000000E+00 0.  1.
          2    1    1    2  501    0 -0.11596023346E+02  0.36670354615E+02  0.65033118398E+03  0.65146744471E+03  0.00000000000E+00 0.  1.
<mgrwt>
<rscale>  2 0.38460144E+02</rscale>
<asrwt>0</asrwt>
<pdfrwt beam="2">  1       21 0.78332666E-03 0.38460144E+02</pdfrwt>
<pdfrwt beam="1">  1        2 0.11271521E+00 0.38460144E+02</pdfrwt>
<totfact> 0.22993886E+06</totfact>
</mgrwt>
</event>
<event>
 4    1  0.2177230E+006  0.2156551E+02  0.7546771E-02  0.1715876E+00
          1   -1    0    0  502    0 -0.00000000000E+00  0.00000000000E+00  0.13072195402E+02  0.13072195402E+02  0.00000000000E+00 0.  1.
         21   -1    0    0  503  502  0.00000000000E+00 -0.00000000000E+00 -0.19435660175E+03  0.19435660175E+03  0.00000000000E+00 0. -1.
         21    1    1    2  503  501  0.20517082792E+02 -0.66423403345E+01 -0.18438470993E+03  0.18564157031E+03  0.00000000000E+00 0. -1.
          1    1    1    2  501    0 -0.20517082792E+02  0.66423403345E+01  0.31003035765E+01  0.21787226847E+02  0.00000000000E+00 0.  1.
<mgrwt>
<rscale>  2 0.21565513E+02</rscale>
<asrwt>0</asrwt>
<pdfrwt beam="2">  1       21 0.29901014E-01 0.21565513E+02</pdfrwt>
<pdfrwt beam="1">  1        1 0.20111071E-02 0.21565513E+02</pdfrwt>
<totfact> 0.50451924E+05</totfact>
</mgrwt>
</event>
<event>
 4    1  0.2177230E+006  0.3467177E+02  0.7546771E-02  0.1551535E+00
          2   -1    0    0  502    0 -0.00000000000E+00  0.00000000000E+00  0.16004602004E+04  0.16004602004E+04  0.00000000000E+00 0.  1.
         21   -1    0    0  503  502  0.00000000000E+00 -0.00000000000E+00 -0.19665147038E+02  0.19665147038E+02  0.00000000000E+00 0. -1.
         21    1    1    2  503  501  0.13095049842E+02 -0.32103759871E+02 -0.40442380388E+01  0.34906841587E+02  0.00000000000E+00 0. -1.
          2    1    1    2  501    0 -0.13095049842E+02  0.32103759871E+02  0.15848392914E+04  0.15852185059E+04  0.00000000000E+00 0.  1.
<mgrwt>
<rscale>  2 0.34671771E+02</rscale>
<asrwt>0</asrwt>
<pdfrwt beam="2">  1       21 0.30254085E-02 0.34671771E+02</pdfrwt>
<pdfrwt beam="1">  1        2 0.24622454E+00 0.34671771E+02</pdfrwt>
<totfact> 0.95978873E+04</totfact>
</mgrwt>
</event>
<event>
 4    1  0.2177230E+006  0.2375211E+02  0.7546771E-02  0.1679601E+00
         21   -1    0    0  501  502  0.00000000000E+00  0.00000000000E+00  0.20315847101E+01  0.20315847101E+01  0.00000000000E+00 0.  1.
          2   -1    0    0  503    0 -0.00000000000E+00 -0.00000000000E+00 -0.75635720249E+03  0.75635720249E+03  0.00000000000E+00 0.  1.
         21    1    1    2  503  502 -0.17684183484E+02  0.15856623592E+02 -0.75506391987E+02  0.79154141321E+02  0.00000000000E+00 0.  1.
          2    1    1    2  501    0  0.17684183484E+02 -0.15856623592E+02 -0.67881922580E+03  0.67923464588E+03  0.00000000000E+00 0.  1.
<mgrwt>
<rscale>  2 0.23752113E+02</rscale>
<asrwt>0</asrwt>
<pdfrwt beam="1">  1       21 0.31255065E-03 0.23752113E+02</pdfrwt>
<pdfrwt beam="2">  1        2 0.11636296E+00 0.23752113E+02</pdfrwt>
<totfact> 0.79050242E+06</totfact>
</mgrwt>
</event>
<event>
 4    1  0.2177230E+006  0.2088500E+02  0.7546771E-02  0.1728281E+00
         21   -1    0    0  501  502  0.00000000000E+00  0.00000000000E+00  0.17350410645E+03  0.17350410645E+03  0.00000000000E+00 0. -1.
          4   -1    0    0  503    0 -0.00000000000E+00 -0.00000000000E+00 -0.61339967697E+01  0.61339967697E+01  0.00000000000E+00 0.  1.
         21    1    1    2  503  502 -0.52632551927E+01 -0.20210921652E+02  0.15268565989E+03  0.15410741042E+03  0.00000000000E+00 0. -1.
          4    1    1    2  501    0  0.52632551927E+01  0.20210921652E+02  0.14684449786E+02  0.25530692799E+02  0.00000000000E+00 0.  1.
<mgrwt>
<rscale>  2 0.20885000E+02</rscale>
<asrwt>0</asrwt>
<pdfrwt beam="1">  1       21 0.26692936E-01 0.20885000E+02</pdfrwt>
<pdfrwt beam="2">  1        4 0.94369194E-03 0.20885000E+02</pdfrwt>
<totfact> 0.10108632E+06</totfact>
</mgrwt>
</event>
<event>
 4    1  0.2177230E+006  0.3296152E+02  0.7546771E-02  0.1567485E+00
         21   -1    0    0  501  502  0.00000000000E+00  0.00000000000E+00  0.44304554284E+01  0.44304554284E+01  0.00000000000E+00 0.  1.
          2   -1    0    0  503    0 -0.00000000000E+00 -0.00000000000E+00 -0.25240050699E+03  0.25240050699E+03  0.00000000000E+00 0.  1.
         21    1    1    2  503  502 -0.31689954292E+02  0.90669052189E+01 -0.10233420422E+03  0.10751163345E+03  0.00000000000E+00 0.  1.
          2    1    1    2  501    0  0.31689954292E+02 -0.90669052189E+01 -0.14563584734E+03  0.14931932897E+03  0.00000000000E+00 0.  1.
<mgrwt>
<rscale>  2 0.32961523E+02</rscale>
<asrwt>0</asrwt>
<pdfrwt beam="1">  1       21 0.68160849E-03 0.32961523E+02</pdfrwt>
<pdfrwt beam="2">  1        2 0.38830850E-01 0.32961523E+02</pdfrwt>
<totfact> 0.82880853E+06</totfact>
</mgrwt>
</event>
<event>
 4    1  0.2177230E+006  0.2176554E+02  0.7546771E-02  0.1712339E+00
         21   -1    0    0  503  502  0.00000000000E+00  0.00000000000E+00  0.13583070320E+03  0.13583070320E+03  0.00000000000E+00 0. -1.
          4   -1    0    0  502    0 -0.00000000000E+00 -0.00000000000E+00 -0.27466438574E+02  0.27466438574E+02  0.00000000000E+00 0. -1.
         21    1    1    2  503  501 -0.14552173801E+02  0.16185581610E+02  0.13047087208E+03  0.13227391003E+03  0.00000000000E+00 0. -1.
          4    1    1    2  501    0  0.14552173801E+02 -0.16185581610E+02 -0.22106607455E+02  0.31023231740E+02  0.00000000000E+00 0. -1.
<mgrwt>
<rscale>  2 0.21765542E+02</rscale>
<asrwt>0</asrwt>
<pdfrwt beam="1">  1       21 0.20897031E-01 0.21765542E+02</pdfrwt>
<pdfrwt beam="2">  1        4 0.42256060E-02 0.21765542E+02</pdfrwt>
<totfact> 0.17463587E+05</totfact>
</mgrwt>
</event>
<event>
 4    1  0.2177230E+006  0.2222616E+02  0.7546771E-02  0.1704370E+00
         21   -1    0    0  501  502  0.00000000000E+00  0.00000000000E+00  0.30279812141E+02  0.30279812141E+02  0.00000000000E+00 0.  1.
          2   -1    0    0  503    0 -0.00000000000E+00 -0.00000000000E+00 -0.37742833737E+03  0.37742833737E+03  0.00000000000E+00 0. -1.
         21    1    1    2  503  502 -0.10334147854E+00  0.22225921427E+02  0.25825283291E+02  0.34072679962E+02  0.00000000000E+00 0.  1.
          2    1    1    2  501    0  0.10334147854E+00 -0.22225921427E+02 -0.37297380852E+03  0.37363546955E+03  0.00000000000E+00 0. -1.
<mgrwt>
<rscale>  2 0.22226162E+02</rscale>
<asrwt>0</asrwt>
<pdfrwt beam="1">  1       21 0.46584328E-02 0.22226162E+02</pdfrwt>
<pdfrwt beam="2">  1        2 0.58065896E-01 0.22226162E+02</pdfrwt>
<totfact> 0.26703727E+05</totfact>
</mgrwt>
</event>
<event>
 4    1  0.2177230E+006  0.3449257E+02  0.7546771E-02  0.1553153E+00
         21   -1    0    0  503  502  0.00000000000E+00  0.00000000000E+00  0.10434857092E+03  0.10434857092E+03  0.00000000000E+00 0.  1.
         -1   -1    0    0    0  501 -0.00000000000E+00 -0.00000000000E+00 -0.20184511307E+02  0.20184511307E+02  0.00000000000E+00 0. -1.
         21    1    1    2  503  501 -0.32143583741E+02  0.12511094923E+02  0.83155900104E+02  0.90025780719E+02  0.00000000000E+00 0.  1.
         -1    1    1    2    0  502  0.32143583741E+02 -0.12511094923E+02  0.10081595101E+01  0.34507301510E+02  0.00000000000E+00 0. -1.
<mgrwt>
<rscale>  2 0.34492571E+02</rscale>
<asrwt>0</asrwt>
<pdfrwt beam="1">  1       21 0.16053626E-01 0.34492571E+02</pdfrwt>
<pdfrwt beam="2">  1       -1 0.31053095E-02 0.34492571E+02</pdfrwt>
<totfact> 0.86505371E+05</totfact>
</mgrwt>
</event>
<event>
 4    1  0.2177230E+006  0.3432619E+02  0.7546771E-02  0.1554667E+00
         -1   -1    0    0    0  501 -0.00000000000E+00  0.00000000000E+00  0.78133026332E+03  0.78133026332E+03  0.00000000000E+00 0. -1.
         21   -1    0    0  501  502  0.00000000000E+00 -0.00000000000E+00 -0.20815873658E+03  0.20815873658E+03  0.00000000000E+00 0. -1.
         21    1    1    2  503  502  0.26589835132E+01  0.34223047642E+02 -0.20636333511E+03  0.20919874106E+03  0.00000000000E+00 0. -1.
         -1    1    1    2    0  503 -0.26589835132E+01 -0.34223047642E+02  0.77953486185E+03  0.78029025883E+03  0.00000000000E+00 0. -1.
<mgrwt>
<rscale>  2 0.34326188E+02</rscale>
<asrwt>0</asrwt>
<pdfrwt beam="2">  1       21 0.32024421E-01 0.34326188E+02</pdfrwt>
<pdfrwt beam="1">  1       -1 0.12020465E+00 0.34326188E+02</pdfrwt>
<totfact> 0.66346414E+02</totfact>
</mgrwt>
</event>
<event>
 4    1  0.2177230E+006  0.2233944E+02  0.7546771E-02  0.1702447E+00
         21   -1    0    0  503  502  0.00000000000E+00  0.00000000000E+00  0.25940485442E+01  0.25940485442E+01  0.00000000000E+00 0.  1.
         -4   -1    0    0    0  501 -0.00000000000E+00 -0.00000000000E+00 -0.31905833927E+03  0.31905833927E+03  0.00000000000E+00 0.  1.
         21    1    1    2  503  501 -0.78835990633E+01 -0.20902139319E+02 -0.56895165660E+02  0.61123730562E+02  0.00000000000E+00 0.  1.
         -4    1    1    2    0  502  0.78835990633E+01  0.20902139319E+02 -0.25956912507E+03  0.26052865726E+03  0.00000000000E+00 0.  1.
<mgrwt>
<rscale>  2 0.22339440E+02</rscale>
<asrwt>0</asrwt>
<pdfrwt beam="1">  1       21 0.39908429E-03 0.22339440E+02</pdfrwt>
<pdfrwt beam="2">  1       -4 0.49085911E-01 0.22339440E+02</pdfrwt>
<totfact> 0.14277167E+06</totfact>
</mgrwt>
</event>
<event>
 4    1  0.2177230E+006  0.2407377E+02  0.7546771E-02  0.1674673E+00
         -2   -1    0    0    0  501 -0.00000000000E+00  0.00000000000E+00  0.93806176819E+03  0.93806176819E+03  0.00000000000E+00 0. -1.
         21   -1    0    0  501  502  0.00000000000E+00 -0.00000000000E+00 -0.12327266792E+02  0.12327266792E+02  0.00000000000E+00 0.  1.
         21    1    1    2  503  502 -0.20469411099E+02 -0.12670820914E+02 -0.26641071783E+00  0.24075245960E+02  0.00000000000E+00 0.  1.
         -2    1    1    2    0  503  0.20469411099E+02  0.12670820914E+02  0.92600091211E+03  0.92631378902E+03  0.00000000000E+00 0. -1.
<mgrwt>
<rscale>  2 0.24073772E+02</rscale>
<asrwt>0</asrwt>
<pdfrwt beam="2">  1       21 0.18965033E-02 0.24073772E+02</pdfrwt>
<pdfrwt beam="1">  1       -2 0.14431714E+00 0.24073772E+02</pdfrwt>
<totfact> 0.32797633E+04</totfact>
</mgrwt>
</event>
<event>
 4    1  0.2177230E+006  0.2220645E+02  0.7546771E-02  0.1704706E+00
         21   -1    0    0  501  502  0.00000000000E+00  0.00000000000E+00  0.29680879164E+02  0.29680879164E+02  0.00000000000E+00 0. -1.
          1   -1    0    0  503    0 -0.00000000000E+00 -0.00000000000E+00 -0.40342123309E+03  0.40342123309E+03  0.00000000000E+00 0.  1.
         21    1    1    2  503  502 -0.19992233937E+02  0.96662779211E+01  0.25174838367E+02  0.33569313866E+02  0.00000000000E+00 0. -1.
          1    1    1    2  501    0  0.19992233937E+02 -0.96662779211E+01 -0.39891519229E+03  0.39953279839E+03  0.00000000000E+00 0.  1.
<mgrwt>
<rscale>  2 0.22206448E+02</rscale>
<asrwt>0</asrwt>
<pdfrwt beam="1">  1       21 0.45662892E-02 0.22206448E+02</pdfrwt>
<pdfrwt beam="2">  1        1 0.62064804E-01 0.22206448E+02</pdfrwt>
<totfact> 0.17573446E+05</totfact>
</mgrwt>
</event>
<event>
 4    1  0.2177230E+006  0.2743805E+02  0.7546771E-02  0.1628266E+00
         21   -1    0    0  503  502  0.00000000000E+00  0.00000000000E+00  0.80507774125E+00  0.80507774125E+00  0.00000000000E+00 0.  1.
          1   -1    0    0  502    0 -0.00000000000E+00 -0.00000000000E+00 -0.10875893223E+04  0.10875893223E+04  0.00000000000E+00 0.  1.
         21    1    1    2  503  501  0.62118061987E+01  0.26725646773E+02 -0.33963595446E+03  0.34074246624E+03  0.00000000000E+00 0.  1.
          1    1    1    2  501    0 -0.62118061987E+01 -0.26725646773E+02 -0.74714829012E+03  0.74765193383E+03  0.00000000000E+00 0.  1.
<mgrwt>
<rscale>  2 0.27438053E+02</rscale>
<asrwt>0</asrwt>
<pdfrwt beam="1">  1       21 0.12385840E-03 0.27438053E+02</pdfrwt>
<pdfrwt beam="2">  1        1 0.16732104E+00 0.27438053E+02</pdfrwt>
<totfact> 0.10884787E+07</totfact>
</mgrwt>
</event>
<event>
 4    1  0.2177230E+006  0.2166172E+02  0.7546771E-02  0.1714169E+00
         21   -1    0    0  501  502  0.00000000000E+00  0.00000000000E+00  0.20290216708E+00  0.20290216708E+00  0.00000000000E+00 0.  1.
          2   -1    0    0  503    0 -0.00000000000E+00 -0.00000000000E+00 -0.23427303041E+04  0.23427303041E+04  0.00000000000E+00 0.  1.
         21    1    1    2  503  502  0.19931459362E+02  0.84833394971E+01 -0.10383954193E+04  0.10386213347E+04  0.00000000000E+00 0.  1.
          2    1    1    2  501    0 -0.19931459362E+02 -0.84833394971E+01 -0.13041319827E+04  0.13043118716E+04  0.00000000000E+00 0.  1.
<mgrwt>
<rscale>  2 0.21661720E+02</rscale>
<asrwt>0</asrwt>
<pdfrwt beam="1">  1       21 0.31215495E-04 0.21661720E+02</pdfrwt>
<pdfrwt beam="2">  1        2 0.36042262E+00 0.21661720E+02</pdfrwt>
<totfact> 0.33793550E+07</totfact>
</mgrwt>
</event>
<event>
 4    1  0.2177230E+006  0.2303938E+02  0.7546771E-02  0.1690873E+00
          1   -1    0    0  502    0 -0.00000000000E+00  0.00000000000E+00  0.86376358509E+01  0.86376358509E+01  0.00000000000E+00 0. -1.
         21   -1    0    0  503  502  0.00000000000E+00 -0.00000000000E+00 -0.10308999567E+03  0.10308999567E+03  0.00000000000E+00 0. -1.
         21    1    1    2  503  501 -0.22946499278E+02  0.20666407951E+01 -0.82728725552E+02  0.85876975172E+02  0.00000000000E+00 0. -1.
          1    1    1    2  501    0  0.22946499278E+02 -0.20666407951E+01 -0.11723634269E+02  0.25850656351E+02  0.00000000000E+00 0. -1.
<mgrwt>
<rscale>  2 0.23039376E+02</rscale>
<asrwt>0</asrwt>
<pdfrwt beam="2">  1       21 0.15859999E-01 0.23039376E+02</pdfrwt>
<pdfrwt beam="1">  1        1 0.13288671E-02 0.23039376E+02</pdfrwt>
<totfact> 0.26905595E+06</totfact>
</mgrwt>
</event>
<event>
 4    1  0.2177230E+006  0.3755599E+02  0.7546771E-02  0.1527008E+00
         -3   -1    0    0    0  501 -0.00000000000E+00  0.00000000000E+00  0.60006759254E+01  0.60006759254E+01  0.00000000000E+00 0. -1.
         21   -1    0    0  501  502  0.00000000000E+00 -0.00000000000E+00 -0.25260185039E+03  0.25260185039E+03  0.00000000000E+00 0. -1.
         21    1    1    2  503  502  0.18285110821E+02  0.32804068340E+02 -0.15738531022E+03  0.16180416574E+03  0.00000000000E+00 0. -1.
         -3    1    1    2    0  503 -0.18285110821E+02 -0.32804068340E+02 -0.89215864246E+02  0.96798360578E+02  0.00000000000E+00 0. -1.
<mgrwt>
<rscale>  2 0.37555987E+02</rscale>
<asrwt>0</asrwt>
<pdfrwt beam="2">  1       21 0.38861820E-01 0.37555987E+02</pdfrwt>
<pdfrwt beam="1">  1       -3 0.92318099E-03 0.37555987E+02</pdfrwt>
<totfact> 0.71990230E+05</totfact>
</mgrwt>
</event>
<event>
 4    1  0.2177230E+006  0.2050058E+02  0.7546771E-02  0.1735553E+00
          2   -1    0    0  502    0 -0.00000000000E+00  0.00000000000E+00  0.94864057482E+01  0.94864057482E+01  0.00000000000E+00 0.  1.
         21   -1    0    0  503  502  0.00000000000E+00 -0.00000000000E+00 -0.15078354961E+03  0.15078354961E+03  0.00000000000E+00 0. -1.
         21    1    1    2  503  501 -0.18000587307E+02  0.98108432200E+01 -0.13798976505E+03  0.13950429759E+03  0.00000000000E+00 0. -1.
          2    1    1    2  501    0  0.18000587307E+02 -0.98108432200E+01 -0.33073788183E+01  0.20765657773E+02  0.00000000000E+00 0.  1.
<mgrwt>
<rscale>  2 0.20500580E+02</rscale>
<asrwt>0</asrwt>
<pdfrwt beam="2">  1       21 0.23197471E-01 0.20500580E+02</pdfrwt>
<pdfrwt beam="1">  1        2 0.14594470E-02 0.20500580E+02</pdfrwt>
<totfact> 0.12288945E+06</totfact>
</mgrwt>
</event>
<event>
 4    1  0.2177230E+006  0.2300684E+02  0.7546771E-02  0.1691399E+00
         21   -1    0    0  501  502  0.00000000000E+00  0.00000000000E+00  0.17778408085E+02  0.17778408085E+02  0.00000000000E+00 0.  1.
         -2   -1    0    0    0  501 -0.00000000000E+00 -0.00000000000E+00 -0.42496928214E+03  0.42496928214E+03  0.00000000000E+00 0.  1.
         21    1    1    2  503  502  0.10980475227E+02 -0.20217415047E+02  0.98830030975E+01  0.25039737571E+02  0.00000000000E+00 0.  1.
         -2    1    1    2    0  503 -0.10980475227E+02  0.20217415047E+02 -0.41707387715E+03  0.41770795265E+03  0.00000000000E+00 0.  1.
<mgrwt>
<rscale>  2 0.23006840E+02</rscale>
<asrwt>0</asrwt>
<pdfrwt beam="1">  1       21 0.27351397E-02 0.23006840E+02</pdfrwt>
<pdfrwt beam="2">  1       -2 0.65379890E-01 0.23006840E+02</pdfrwt>
<totfact> 0.10639821E+05</totfact>
</mgrwt>
</event>
<event>
 4    1  0.2177230E+006  0.2870366E+02  0.7546771E-02  0.1612876E+00
          2   -1    0    0  503    0 -0.00000000000E+00  0.00000000000E+00  0.15143759764E+04  0.15143759764E+04  0.00000000000E+00 0.  1.
         21   -1    0    0  501  502  0.00000000000E+00 -0.00000000000E+00 -0.55707264343E+00  0.55707264343E+00  0.00000000000E+00 0. -1.
         21    1    1    2  503  502 -0.66610670907E+01  0.27920066843E+02  0.64110736440E+03  0.64174960275E+03  0.00000000000E+00 0. -1.
          2    1    1    2  501    0  0.66610670907E+01 -0.27920066843E+02  0.87271153936E+03  0.87318344629E+03  0.00000000000E+00 0.  1.
<mgrwt>
<rscale>  2 0.28703657E+02</rscale>
<asrwt>0</asrwt>
<pdfrwt beam="2">  1       21 0.85704696E-04 0.28703657E+02</pdfrwt>
<pdfrwt beam="1">  1        2 0.23297762E+00 0.28703657E+02</pdfrwt>
<totfact> 0.21226338E+07</totfact>
</mgrwt>
</event>
<event>
 4    1  0.2177230E+006  0.2133877E+02  0.7546771E-02  0.1719945E+00
         21   -1    0    0  503  502  0.00000000000E+00  0.00000000000E+00  0.10565656173E+02  0.10565656173E+02  0.00000000000E+00 0.  1.
          4   -1    0    0  502    0 -0.00000000000E+00 -0.00000000000E+00 -0.43220664272E+03  0.43220664272E+03  0.00000000000E+00 0. -1.
         21    1    1    2  503  501 -0.12463299186E+02  0.17320779251E+02 -0.76164422758E+00  0.21352361050E+02  0.00000000000E+00 0.  1.
          4    1    1    2  501    0  0.12463299186E+02 -0.17320779251E+02 -0.42087934232E+03  0.42141993785E+03  0.00000000000E+00 0. -1.
<mgrwt>
<rscale>  2 0.21338773E+02</rscale>
<asrwt>0</asrwt>
<pdfrwt beam="1">  1       21 0.16254856E-02 0.21338773E+02</pdfrwt>
<pdfrwt beam="2">  1        4 0.66493328E-01 0.21338773E+02</pdfrwt>
<totfact> 0.94509824E+04</totfact>
</mgrwt>
</event>
<event>
 4    1  0.2177230E+006  0.3511620E+02  0.7546771E-02  0.1547571E+00
         -1   -1    0    0    0  501 -0.00000000000E+00  0.00000000000E+00  0.15876322663E+04  0.15876322663E+04  0.00000000000E+00 0.  1.
         21   -1    0    0  501  502  0.00000000000E+00 -0.00000000000E+00 -0.26673511439E+01  0.26673511439E+01  0.00000000000E+00 0.  1.
         21    1    1    2  503  502 -0.35086902797E+02 -0.14342412710E+01  0.12304175032E+03  0.12795475809E+03  0.00000000000E+00 0.  1.
         -1    1    1    2    0  503  0.35086902797E+02  0.14342412710E+01  0.14619231648E+04  0.14623448593E+04  0.00000000000E+00 0.  1.
<mgrwt>
<rscale>  2 0.35116204E+02</rscale>
<asrwt>0</asrwt>
<pdfrwt beam="2">  1       21 0.41036298E-03 0.35116204E+02</pdfrwt>
<pdfrwt beam="1">  1       -1 0.24425036E+00 0.35116204E+02</pdfrwt>
<totfact> 0.11180557E+05</totfact>
</mgrwt>
</event>
<event>
 4    1  0.2177230E+006  0.4204771E+02  0.7546771E-02  0.1493661E+00
          1   -1    0    0  502    0 -0.00000000000E+00  0.00000000000E+00  0.20507184346E+04  0.20507184346E+04  0.00000000000E+00 0.  1.
         21   -1    0    0  503  502  0.00000000000E+00 -0.00000000000E+00 -0.11721566282E+01  0.11721566282E+01  0.00000000000E+00 0.  1.
         21    1    1    2  503  501  0.22964088292E+02 -0.35223006136E+02  0.49715124478E+03  0.49892621669E+03  0.00000000000E+00 0.  1.
          1    1    1    2  501    0 -0.22964088292E+02  0.35223006136E+02  0.15523950332E+04  0.15529643745E+04  0.00000000000E+00 0.  1.
<mgrwt>
<rscale>  2 0.42047705E+02</rscale>
<asrwt>0</asrwt>
<pdfrwt beam="2">  1       21 0.18033343E-03 0.42047705E+02</pdfrwt>
<pdfrwt beam="1">  1        1 0.31549227E+00 0.42047705E+02</pdfrwt>
<totfact> 0.17283540E+06</totfact>
</mgrwt>
</event>
<event>
 4    1  0.2177230E+006  0.2116807E+02  0.7546771E-02  0.1723050E+00
          2   -1    0    0  503    0 -0.00000000000E+00  0.00000000000E+00  0.48196836722E+03  0.48196836722E+03  0.00000000000E+00 0. -1.
         21   -1    0    0  501  502  0.00000000000E+00 -0.00000000000E+00 -0.44116926984E+01  0.44116926984E+01  0.00000000000E+00 0.  1.
         21    1    1    2  503  502  0.25183147471E+01 -0.21017735015E+02  0.22727016913E+02  0.31058080947E+02  0.00000000000E+00 0.  1.
          2    1    1    2  501    0 -0.25183147471E+01  0.21017735015E+02  0.45482965761E+03  0.45532197897E+03  0.00000000000E+00 0. -1.
<mgrwt>
<rscale>  2 0.21168068E+02</rscale>
<asrwt>0</asrwt>
<pdfrwt beam="2">  1       21 0.67872233E-03 0.21168068E+02</pdfrwt>
<pdfrwt beam="1">  1        2 0.74148938E-01 0.21168068E+02</pdfrwt>
<totfact> 0.39377341E+06</totfact>
</mgrwt>
</event>
<event>
 4    1  0.2177230E+006  0.2999212E+02  0.7546771E-02  0.1598176E+00
         21   -1    0    0  501  502  0.00000000000E+00  0.00000000000E+00  0.45972125893E+02  0.45972125893E+02  0.00000000000E+00 0.  1.
          1   -1    0    0  503    0 -0.00000000000E+00 -0.00000000000E+00 -0.38618815034E+03  0.38618815034E+03  0.00000000000E+00 0. -1.
         21    1    1    2  503  502  0.22983074166E+02 -0.19269286281E+02  0.40426964693E+02  0.50337526421E+02  0.00000000000E+00 0.  1.
          1    1    1    2  501    0 -0.22983074166E+02  0.19269286281E+02 -0.38064298914E+03  0.38182274981E+03  0.00000000000E+00 0. -1.
<mgrwt>
<rscale>  2 0.29992117E+02</rscale>
<asrwt>0</asrwt>
<pdfrwt beam="1">  1       21 0.70726344E-02 0.29992117E+02</pdfrwt>
<pdfrwt beam="2">  1        1 0.59413564E-01 0.29992117E+02</pdfrwt>
<totfact> 0.94546965E+04</totfact>
</mgrwt>
</event>
<event>
 4    1  0.2177230E+006  0.2118210E+02  0.7546771E-02  0.1722793E+00
         21   -1    0    0  501  502  0.00000000000E+00  0.00000000000E+00  0.34449824540E+02  0.34449824540E+02  0.00000000000E+00 0. -1.
          2   -1    0    0  503    0 -0.00000000000E+00 -0.00000000000E+00 -0.46797208372E+02  0.46797208372E+02  0.00000000000E+00 0. -1.
         21    1    1    2  503  502 -0.21040029833E+02 -0.24491723668E+01  0.28336902055E+02  0.35378825853E+02  0.00000000000E+00 0. -1.
          2    1    1    2  501    0  0.21040029833E+02  0.24491723668E+01 -0.40684285887E+02  0.45868207059E+02  0.00000000000E+00 0. -1.
<mgrwt>
<rscale>  2 0.21182099E+02</rscale>
<asrwt>0</asrwt>
<pdfrwt beam="1">  1       21 0.52999730E-02 0.21182099E+02</pdfrwt>
<pdfrwt beam="2">  1        2 0.71995705E-02 0.21182099E+02</pdfrwt>
<totfact> 0.19819643E+06</totfact>
</mgrwt>
</event>
<event>
 4    1  0.2177230E+006  0.2388150E+02  0.7546771E-02  0.1677607E+00
         21   -1    0    0  501  502  0.00000000000E+00  0.00000000000E+00  0.17001847140E+01  0.17001847140E+01  0.00000000000E+00 0. -1.
          2   -1    0    0  503    0 -0.00000000000E+00 -0.00000000000E+00 -0.44952478631E+03  0.44952478631E+03  0.00000000000E+00 0. -1.
         21    1    1    2  503  502 -0.46426319118E+00 -0.23876982437E+02 -0.11025890733E+03  0.11281556841E+03  0.00000000000E+00 0. -1.
          2    1    1    2  501    0  0.46426319118E+00  0.23876982437E+02 -0.33756569427E+03  0.33840940262E+03  0.00000000000E+00 0. -1.
<mgrwt>
<rscale>  2 0.23881496E+02</rscale>
<asrwt>0</asrwt>
<pdfrwt beam="1">  1       21 0.26156684E-03 0.23881496E+02</pdfrwt>
<pdfrwt beam="2">  1        2 0.69157670E-01 0.23881496E+02</pdfrwt>
<totfact> 0.17674017E+07</totfact>
</mgrwt>
</event>
<event>
 4    1  0.2177230E+006  0.2257253E+02  0.7546771E-02  0.1698534E+00
         -2   -1    0    0    0  501 -0.00000000000E+00  0.00000000000E+00  0.11672134578E+03  0.11672134578E+03  0.00000000000E+00 0.  1.
         21   -1    0    0  503  502  0.00000000000E+00 -0.00000000000E+00 -0.52667866412E+01  0.52667866412E+01  0.00000000000E+00 0. -1.
         21    1    1    2  503  501  0.20013417025E+02  0.10439465850E+02  0.30492273367E+02  0.37938081704E+02  0.00000000000E+00 0. -1.
         -2    1    1    2    0  502 -0.20013417025E+02 -0.10439465850E+02  0.80962285776E+02  0.84050050722E+02  0.00000000000E+00 0.  1.
<mgrwt>
<rscale>  2 0.22572534E+02</rscale>
<asrwt>0</asrwt>
<pdfrwt beam="2">  1       21 0.81027496E-03 0.22572534E+02</pdfrwt>
<pdfrwt beam="1">  1       -2 0.17957128E-01 0.22572534E+02</pdfrwt>
<totfact> 0.66561060E+06</totfact>
</mgrwt>
</event>
<event>
 4    1  0.2177230E+006  0.2218890E+02  0.7546771E-02  0.1705005E+00
          2   -1    0    0  503    0 -0.00000000000E+00  0.00000000000E+00  0.11792200490E+04  0.11792200490E+04  0.00000000000E+00 0.  1.
         21   -1    0    0  501  502  0.00000000000E+00 -0.00000000000E+00 -0.94329610963E+00  0.94329610963E+00  0.00000000000E+00 0.  1.
         21    1    1    2  503  502  0.18422172996E+02 -0.12368135102E+02  0.14859488974E+03  0.15024243236E+03  0.00000000000E+00 0.  1.
          2    1    1    2  501    0 -0.18422172996E+02  0.12368135102E+02  0.10296818632E+04  0.10299209128E+04  0.00000000000E+00 0.  1.
<mgrwt>
<rscale>  2 0.22188899E+02</rscale>
<asrwt>0</asrwt>
<pdfrwt beam="2">  1       21 0.14512342E-03 0.22188899E+02</pdfrwt>
<pdfrwt beam="1">  1        2 0.18141729E+00 0.22188899E+02</pdfrwt>
<totfact> 0.13694206E+07</totfact>
</mgrwt>
</event>
<event>
 4    1  0.2177230E+006  0.2414922E+02  0.7546771E-02  0.1673531E+00
         21   -1    0    0  501  502  0.00000000000E+00  0.00000000000E+00  0.23682778734E+02  0.23682778734E+02  0.00000000000E+00 0.  1.
          2   -1    0    0  503    0 -0.00000000000E+00 -0.00000000000E+00 -0.46808671999E+03  0.46808671999E+03  0.00000000000E+00 0.  1.
         21    1    1    2  503  502 -0.51845070600E+01  0.23586135285E+02  0.17127717424E+02  0.29606478941E+02  0.00000000000E+00 0.  1.
          2    1    1    2  501    0  0.51845070600E+01 -0.23586135285E+02 -0.46153165868E+03  0.46216301978E+03  0.00000000000E+00 0.  1.
<mgrwt>
<rscale>  2 0.24149221E+02</rscale>
<asrwt>0</asrwt>
<pdfrwt beam="1">  1       21 0.36435042E-02 0.24149221E+02</pdfrwt>
<pdfrwt beam="2">  1        2 0.72013345E-01 0.24149221E+02</pdfrwt>
<totfact> 0.32170502E+05</totfact>
</mgrwt>
</event>
<event>
 4    1  0.2177230E+006  0.2098016E+02  0.7546771E-02  0.1726511E+00
         21   -1    0    0  501  502  0.00000000000E+00  0.00000000000E+00  0.95629535813E+00  0.95629535813E+00  0.00000000000E+00 0.  1.
          2   -1    0    0  503    0 -0.00000000000E+00 -0.00000000000E+00 -0.47484226705E+03  0.47484226705E+03  0.00000000000E+00 0. -1.
         21    1    1    2  503  502  0.12103323572E+02 -0.17137000682E+02 -0.19528706901E+03  0.19641081069E+03  0.00000000000E+00 0.  1.
          2    1    1    2  501    0 -0.12103323572E+02  0.17137000682E+02 -0.27859890269E+03  0.27938775172E+03  0.00000000000E+00 0. -1.
<mgrwt>
<rscale>  2 0.20980163E+02</rscale>
<asrwt>0</asrwt>
<pdfrwt beam="1">  1       21 0.14712249E-03 0.20980163E+02</pdfrwt>
<pdfrwt beam="2">  1        2 0.73052595E-01 0.20980163E+02</pdfrwt>
<totfact> 0.36875617E+07</totfact>
</mgrwt>
</event>
<event>
 4    1  0.2177230E+006  0.2149531E+02  0.7546771E-02  0.1717129E+00
         21   -1    0    0  501  502  0.00000000000E+00  0.00000000000E+00  0.41483134209E+00  0.41483134209E+00  0.00000000000E+00 0. -1.
          2   -1    0    0  503    0 -0.00000000000E+00 -0.00000000000E+00 -0.12017960453E+04  0.12017960453E+04  0.00000000000E+00 0. -1.
         21    1    1    2  503  502 -0.52570132517E+01 -0.20842553209E+02 -0.43805601475E+03  0.43858308251E+03  0.00000000000E+00 0. -1.
          2    1    1    2  501    0  0.52570132517E+01  0.20842553209E+02 -0.76332519918E+03  0.76362779410E+03  0.00000000000E+00 0. -1.
<mgrwt>
<rscale>  2 0.21495307E+02</rscale>
<asrwt>0</asrwt>
<pdfrwt beam="1">  1       21 0.63820574E-04 0.21495307E+02</pdfrwt>
<pdfrwt beam="2">  1        2 0.18489063E+00 0.21495307E+02</pdfrwt>
<totfact> 0.42493071E+07</totfact>
</mgrwt>
</event>
<event>
 4    1  0.2177230E+006  0.2079230E+02  0.7546771E-02  0.1730016E+00
         21   -1    0    0  503  502  0.00000000000E+00  0.00000000000E+00  0.92773765617E+01  0.92773765617E+01  0.00000000000E+00 0.  1.
         -2   -1    0    0    0  501 -0.00000000000E+00 -0.00000000000E+00 -0.71025078474E+02  0.71025078474E+02  0.00000000000E+00 0.  1.
         21    1    1    2  503  501  0.16704069863E+02  0.12381178617E+02 -0.73278637064E+01  0.22045795980E+02  0.00000000000E+00 0.  1.
         -2    1    1    2    0  502 -0.16704069863E+02 -0.12381178617E+02 -0.54419838206E+02  0.58256659055E+02  0.00000000000E+00 0.  1.
<mgrwt>
<rscale>  2 0.20792295E+02</rscale>
<asrwt>0</asrwt>
<pdfrwt beam="1">  1       21 0.14272886E-02 0.20792295E+02</pdfrwt>
<pdfrwt beam="2">  1       -2 0.10926936E-01 0.20792295E+02</pdfrwt>
<totfact> 0.59515477E+06</totfact>
</mgrwt>
</event>
<event>
 4    1  0.2177230E+006  0.2042907E+02  0.7546771E-02  0.1736928E+00
         21   -1    0    0  503  502  0.00000000000E+00  0.00000000000E+00  0.74405079087E+00  0.74405079087E+00  0.00000000000E+00 0. -1.
          1   -1    0    0  502    0 -0.00000000000E+00 -0.00000000000E+00 -0.13748881554E+04  0.13748881554E+04  0.00000000000E+00 0. -1.
         21    1    1    2  503  501 -0.87253804157E+01 -0.18471992148E+02 -0.15784188911E+03  0.15915843903E+03  0.00000000000E+00 0. -1.
          1    1    1    2  501    0  0.87253804157E+01  0.18471992148E+02 -0.12163022155E+04  0.12164737671E+04  0.00000000000E+00 0. -1.
<mgrwt>
<rscale>  2 0.20429066E+02</rscale>
<asrwt>0</asrwt>
<pdfrwt beam="1">  1       21 0.11446881E-03 0.20429066E+02</pdfrwt>
<pdfrwt beam="2">  1        1 0.21152225E+00 0.20429066E+02</pdfrwt>
<totfact> 0.75171225E+06</totfact>
</mgrwt>
</event>
<event>
 4    1  0.2177230E+006  0.2265571E+02  0.7546771E-02  0.1697153E+00
         21   -1    0    0  501  502  0.00000000000E+00  0.00000000000E+00  0.98467057910E+01  0.98467057910E+01  0.00000000000E+00 0. -1.
          2   -1    0    0  503    0 -0.00000000000E+00 -0.00000000000E+00 -0.56999457412E+02  0.56999457412E+02  0.00000000000E+00 0. -1.
         21    1    1    2  503  502  0.22245506478E+02 -0.42916873938E+01 -0.13804531792E+02  0.26530100586E+02  0.00000000000E+00 0. -1.
          2    1    1    2  501    0 -0.22245506478E+02  0.42916873938E+01 -0.33348219829E+02  0.40316062617E+02  0.00000000000E+00 0. -1.
<mgrwt>
<rscale>  2 0.22655709E+02</rscale>
<asrwt>0</asrwt>
<pdfrwt beam="1">  1       21 0.15148778E-02 0.22655709E+02</pdfrwt>
<pdfrwt beam="2">  1        2 0.87691473E-02 0.22655709E+02</pdfrwt>
<totfact> 0.11191463E+07</totfact>
</mgrwt>
</event>
<event>
 4    1  0.2177230E+006  0.3073990E+02  0.7546771E-02  0.1590051E+00
          1   -1    0    0  503    0 -0.00000000000E+00  0.00000000000E+00  0.79192125510E+03  0.79192125510E+03  0.00000000000E+00 0. -1.
         21   -1    0    0  501  502  0.00000000000E+00 -0.00000000000E+00 -0.15899330152E+02  0.15899330152E+02  0.00000000000E+00 0.  1.
         21    1    1    2  503  502  0.13516337903E+02  0.27608881553E+02 -0.44725417432E+00  0.30743158055E+02  0.00000000000E+00 0.  1.
          1    1    1    2  501    0 -0.13516337903E+02 -0.27608881553E+02  0.77646917912E+03  0.77707742719E+03  0.00000000000E+00 0. -1.
<mgrwt>
<rscale>  2 0.30739905E+02</rscale>
<asrwt>0</asrwt>
<pdfrwt beam="2">  1       21 0.24460514E-02 0.30739905E+02</pdfrwt>
<pdfrwt beam="1">  1        1 0.12183401E+00 0.30739905E+02</pdfrwt>
<totfact> 0.20849947E+05</totfact>
</mgrwt>
</event>
<event>
 4    1  0.2177230E+006  0.2458568E+02  0.7546771E-02  0.1667025E+00
         21   -1    0    0  501  502  0.00000000000E+00  0.00000000000E+00  0.98232284462E+02  0.98232284462E+02  0.00000000000E+00 0.  1.
          2   -1    0    0  503    0 -0.00000000000E+00 -0.00000000000E+00 -0.63959785745E+02  0.63959785745E+02  0.00000000000E+00 0. -1.
         21    1    1    2  503  502  0.15649390161E+02  0.18961859782E+02  0.94232684531E+02  0.97387136587E+02  0.00000000000E+00 0.  1.
          2    1    1    2  501    0 -0.15649390161E+02 -0.18961859782E+02 -0.59960185814E+02  0.64804933621E+02  0.00000000000E+00 0. -1.
<mgrwt>
<rscale>  2 0.24585678E+02</rscale>
<asrwt>0</asrwt>
<pdfrwt beam="1">  1       21 0.15112659E-01 0.24585678E+02</pdfrwt>
<pdfrwt beam="2">  1        2 0.98399670E-02 0.24585678E+02</pdfrwt>
<totfact> 0.25277480E+05</totfact>
</mgrwt>
</event>
<event>
 4    1  0.2177230E+006  0.3654814E+02  0.7546771E-02  0.1535267E+00
         -3   -1    0    0    0  501 -0.00000000000E+00  0.00000000000E+00  0.21565287288E+02  0.21565287288E+02  0.00000000000E+00 0. -1.
         21   -1    0    0  503  502  0.00000000000E+00 -0.00000000000E+00 -0.73591914188E+02  0.73591914188E+02  0.00000000000E+00 0. -1.
         21    1    1    2  503  501 -0.36462852343E+02  0.24954501167E+01 -0.44944770449E+02  0.57929260853E+02  0.00000000000E+00 0. -1.
         -3    1    1    2    0  502  0.36462852343E+02 -0.24954501167E+01 -0.70818564514E+01  0.37227940623E+02  0.00000000000E+00 0. -1.
<mgrwt>
<rscale>  2 0.36548145E+02</rscale>
<asrwt>0</asrwt>
<pdfrwt beam="2">  1       21 0.11321833E-01 0.36548145E+02</pdfrwt>
<pdfrwt beam="1">  1       -3 0.33177366E-02 0.36548145E+02</pdfrwt>
<totfact> 0.99429536E+05</totfact>
</mgrwt>
</event>
<event>
 4    1  0.2177230E+006  0.3939174E+02  0.7546771E-02  0.1512736E+00
         21   -1    0    0  501  502  0.00000000000E+00  0.00000000000E+00  0.50787340976E+01  0.50787340976E+01  0.00000000000E+00 0.  1.
          1   -1    0    0  503    0 -0.00000000000E+00 -0.00000000000E+00 -0.72756893794E+03  0.72756893794E+03  0.00000000000E+00 0.  1.
         21    1    1    2  503  502 -0.27575824075E+02 -0.28129759884E+02 -0.82245248100E+02  0.91192051735E+02  0.00000000000E+00 0.  1.
          1    1    1    2  501    0  0.27575824075E+02  0.28129759884E+02 -0.64024495574E+03  0.64145562030E+03  0.00000000000E+00 0.  1.
<mgrwt>
<rscale>  2 0.39391744E+02</rscale>
<asrwt>0</asrwt>
<pdfrwt beam="1">  1       21 0.78134429E-03 0.39391744E+02</pdfrwt>
<pdfrwt beam="2">  1        1 0.11193360E+00 0.39391744E+02</pdfrwt>
<totfact> 0.13990406E+06</totfact>
</mgrwt>
</event>
<event>
 4    1  0.2177230E+006  0.2484957E+02  0.7546771E-02  0.1663172E+00
          1   -1    0    0  502    0 -0.00000000000E+00  0.00000000000E+00  0.14766938993E+03  0.14766938993E+03  0.00000000000E+00 0.  1.
         21   -1    0    0  503  502  0.00000000000E+00 -0.00000000000E+00 -0.25527083417E+02  0.25527083417E+02  0.00000000000E+00 0.  1.
         21    1    1    2  503  501  0.18362760391E+01  0.24781626256E+02 -0.18117141997E+02  0.30752751807E+02  0.00000000000E+00 0.  1.
          1    1    1    2  501    0 -0.18362760391E+01 -0.24781626256E+02  0.14025944851E+03  0.14244372154E+03  0.00000000000E+00 0.  1.
<mgrwt>
<rscale>  2 0.24849566E+02</rscale>
<asrwt>0</asrwt>
<pdfrwt beam="2">  1       21 0.39272437E-02 0.24849566E+02</pdfrwt>
<pdfrwt beam="1">  1        1 0.22718367E-01 0.24849566E+02</pdfrwt>
<totfact> 0.73066154E+05</totfact>
</mgrwt>
</event>
<event>
 4    1  0.2177230E+006  0.2392176E+02  0.7546771E-02  0.1676990E+00
          1   -1    0    0  503    0 -0.00000000000E+00  0.00000000000E+00  0.29616033920E+02  0.29616033920E+02  0.00000000000E+00 0.  1.
         21   -1    0    0  501  502  0.00000000000E+00 -0.00000000000E+00 -0.32748761936E+03  0.32748761936E+03  0.00000000000E+00 0. -1.
         21    1    1    2  503  502 -0.18573695146E+02  0.15075427691E+02 -0.32214011156E+03  0.32302709197E+03  0.00000000000E+00 0. -1.
          1    1    1    2  501    0  0.18573695146E+02 -0.15075427691E+02  0.24268526113E+02  0.34076561316E+02  0.00000000000E+00 0.  1.
<mgrwt>
<rscale>  2 0.23921761E+02</rscale>
<asrwt>0</asrwt>
<pdfrwt beam="2">  1       21 0.50382714E-01 0.23921761E+02</pdfrwt>
<pdfrwt beam="1">  1        1 0.45563126E-02 0.23921761E+02</pdfrwt>
<totfact> 0.66440500E+04</totfact>
</mgrwt>
</event>
<event>
 4    1  0.2177230E+006  0.2988607E+02  0.7546771E-02  0.1599351E+00
         21   -1    0    0  501  502  0.00000000000E+00  0.00000000000E+00  0.32596023490E+02  0.32596023490E+02  0.00000000000E+00 0. -1.
          4   -1    0    0  503    0 -0.00000000000E+00 -0.00000000000E+00 -0.63388921617E+02  0.63388921617E+02  0.00000000000E+00 0. -1.
         21    1    1    2  503  502  0.27578438641E+02  0.11515510224E+02  0.20764706996E+02  0.36391624176E+02  0.00000000000E+00 0. -1.
          4    1    1    2  501    0 -0.27578438641E+02 -0.11515510224E+02 -0.51557605122E+02  0.59593320930E+02  0.00000000000E+00 0. -1.
<mgrwt>
<rscale>  2 0.29886071E+02</rscale>
<asrwt>0</asrwt>
<pdfrwt beam="1">  1       21 0.50147729E-02 0.29886071E+02</pdfrwt>
<pdfrwt beam="2">  1        4 0.97521417E-02 0.29886071E+02</pdfrwt>
<totfact> 0.57080703E+05</totfact>
</mgrwt>
</event>
<event>
 4    1  0.2177230E+006  0.2411705E+02  0.7546771E-02  0.1674018E+00
          2   -1    0    0  502    0 -0.00000000000E+00  0.00000000000E+00  0.28558286233E+03  0.28558286233E+03  0.00000000000E+00 0. -1.
         21   -1    0    0  503  502  0.00000000000E+00 -0.00000000000E+00 -0.23155652007E+02  0.23155652007E+02  0.00000000000E+00 0. -1.
         21    1    1    2  503  501  0.21042861571E+02  0.11782611667E+02 -0.16210675201E+02  0.29058870440E+02  0.00000000000E+00 0. -1.
          2    1    1    2  501    0 -0.21042861571E+02 -0.11782611667E+02  0.27863788553E+03  0.27967964390E+03  0.00000000000E+00 0. -1.
<mgrwt>
<rscale>  2 0.24117047E+02</rscale>
<asrwt>0</asrwt>
<pdfrwt beam="2">  1       21 0.35624082E-02 0.24117047E+02</pdfrwt>
<pdfrwt beam="1">  1        2 0.43935823E-01 0.24117047E+02</pdfrwt>
<totfact> 0.54367424E+05</totfact>
</mgrwt>
</event>
<event>
 4    1  0.2177230E+006  0.2437786E+02  0.7546771E-02  0.1670102E+00
          2   -1    0    0  502    0 -0.00000000000E+00  0.00000000000E+00  0.51921671962E+02  0.51921671962E+02  0.00000000000E+00 0.  1.
         21   -1    0    0  503  502  0.00000000000E+00 -0.00000000000E+00 -0.20039100438E+02  0.20039100438E+02  0.00000000000E+00 0.  1.
         21    1    1    2  503  501 -0.24235334224E+02 -0.26321897744E+01 -0.76205568348E+01  0.25541196809E+02  0.00000000000E+00 0.  1.
          2    1    1    2  501    0  0.24235334224E+02  0.26321897744E+01  0.39503128359E+02  0.46419575591E+02  0.00000000000E+00 0.  1.
<mgrwt>
<rscale>  2 0.24377856E+02</rscale>
<asrwt>0</asrwt>
<pdfrwt beam="2">  1       21 0.30829386E-02 0.24377856E+02</pdfrwt>
<pdfrwt beam="1">  1        2 0.79879495E-02 0.24377856E+02</pdfrwt>
<totfact> 0.42684664E+06</totfact>
</mgrwt>
</event>
<event>
 4    1  0.2177230E+006  0.3140091E+02  0.7546771E-02  0.1583100E+00
          4   -1    0    0  503    0 -0.00000000000E+00  0.00000000000E+00  0.30134552923E+01  0.30134552923E+01  0.00000000000E+00 0. -1.
         21   -1    0    0  501  502  0.00000000000E+00 -0.00000000000E+00 -0.59597540271E+03  0.59597540271E+03  0.00000000000E+00 0. -1.
         21    1    1    2  503  502 -0.25071579367E+02  0.18905905084E+02 -0.49760566101E+03  0.49859543841E+03  0.00000000000E+00 0. -1.
          4    1    1    2  501    0  0.25071579367E+02 -0.18905905084E+02 -0.95356286411E+02  0.10039341959E+03  0.00000000000E+00 0. -1.
<mgrwt>
<rscale>  2 0.31400913E+02</rscale>
<asrwt>0</asrwt>
<pdfrwt beam="2">  1       21 0.91688502E-01 0.31400913E+02</pdfrwt>
<pdfrwt beam="1">  1        4 0.46360861E-03 0.31400913E+02</pdfrwt>
<totfact> 0.28543070E+05</totfact>
</mgrwt>
</event>
<event>
 4    1  0.2177230E+006  0.2173387E+02  0.7546771E-02  0.1712896E+00
         21   -1    0    0  501  502  0.00000000000E+00  0.00000000000E+00  0.15664199221E+01  0.15664199221E+01  0.00000000000E+00 0.  1.
          3   -1    0    0  503    0 -0.00000000000E+00 -0.00000000000E+00 -0.11316726380E+04  0.11316726380E+04  0.00000000000E+00 0.  1.
         21    1    1    2  503  502 -0.19091467160E+02 -0.10386384694E+02 -0.79763423209E+02  0.82671426669E+02  0.00000000000E+00 0.  1.
          3    1    1    2  501    0  0.19091467160E+02  0.10386384694E+02 -0.10503427949E+04  0.10505676312E+04  0.00000000000E+00 0.  1.
<mgrwt>
<rscale>  2 0.21733870E+02</rscale>
<asrwt>0</asrwt>
<pdfrwt beam="1">  1       21 0.24098670E-03 0.21733870E+02</pdfrwt>
<pdfrwt beam="2">  1        3 0.17410419E+00 0.21733870E+02</pdfrwt>
<totfact> 0.25816418E+05</totfact>
</mgrwt>
</event>
<event>
 4    1  0.2177230E+006  0.2096776E+02  0.7546771E-02  0.1726741E+00
         21   -1    0    0  503  502  0.00000000000E+00  0.00000000000E+00  0.99763072763E+02  0.99763072763E+02  0.00000000000E+00 0. -1.
         -4   -1    0    0    0  501 -0.00000000000E+00 -0.00000000000E+00 -0.61033913570E+02  0.61033913570E+02  0.00000000000E+00 0.  1.
         21    1    1    2  503  501 -0.91221955956E+01  0.18879422990E+02  0.96806137973E+02  0.99050872859E+02  0.00000000000E+00 0. -1.
         -4    1    1    2    0  502  0.91221955956E+01 -0.18879422990E+02 -0.58076978780E+02  0.61746113474E+02  0.00000000000E+00 0.  1.
<mgrwt>
<rscale>  2 0.20967763E+02</rscale>
<asrwt>0</asrwt>
<pdfrwt beam="1">  1       21 0.15348165E-01 0.20967763E+02</pdfrwt>
<pdfrwt beam="2">  1       -4 0.93898329E-02 0.20967763E+02</pdfrwt>
<totfact> 0.84919010E+04</totfact>
</mgrwt>
</event>
<event>
 4    1  0.2177230E+006  0.2590341E+02  0.7546771E-02  0.1648355E+00
         21   -1    0    0  501  502  0.00000000000E+00  0.00000000000E+00  0.30849890382E+03  0.30849890382E+03  0.00000000000E+00 0. -1.
         -3   -1    0    0    0  501 -0.00000000000E+00 -0.00000000000E+00 -0.95086714370E+01  0.95086714370E+01  0.00000000000E+00 0.  1.
         21    1    1    2  503  502 -0.34905348691E+01 -0.25667153459E+02  0.28913456670E+03  0.29029258389E+03  0.00000000000E+00 0. -1.
         -3    1    1    2    0  503  0.34905348691E+01  0.25667153459E+02  0.98556656803E+01  0.27714991365E+02  0.00000000000E+00 0.  1.
<mgrwt>
<rscale>  2 0.25903409E+02</rscale>
<asrwt>0</asrwt>
<pdfrwt beam="1">  1       21 0.47461362E-01 0.25903409E+02</pdfrwt>
<pdfrwt beam="2">  1       -3 0.14628728E-02 0.25903409E+02</pdfrwt>
<totfact> 0.22927595E+05</totfact>
</mgrwt>
</event>
<event>
 4    1  0.2177230E+006  0.2210887E+02  0.7546771E-02  0.1706376E+00
          2   -1    0    0  503    0 -0.00000000000E+00  0.00000000000E+00  0.44723904021E+03  0.44723904021E+03  0.00000000000E+00 0. -1.
         21   -1    0    0  501  502  0.00000000000E+00 -0.00000000000E+00 -0.28878384824E+01  0.28878384824E+01  0.00000000000E+00 0. -1.
         21    1    1    2  503  502 -0.18881289810E+02 -0.11502134953E+02  0.44740589473E+02  0.49905135605E+02  0.00000000000E+00 0. -1.
          2    1    1    2  501    0  0.18881289810E+02  0.11502134953E+02  0.39961061226E+03  0.40022174309E+03  0.00000000000E+00 0. -1.
<mgrwt>
<rscale>  2 0.22108872E+02</rscale>
<asrwt>0</asrwt>
<pdfrwt beam="2">  1       21 0.44428320E-03 0.22108872E+02</pdfrwt>
<pdfrwt beam="1">  1        2 0.68805951E-01 0.22108872E+02</pdfrwt>
<totfact> 0.80167054E+06</totfact>
</mgrwt>
</event>
<event>
 4    1  0.2177230E+006  0.2060734E+02  0.7546771E-02  0.1733513E+00
         -1   -1    0    0    0  501 -0.00000000000E+00  0.00000000000E+00  0.13757925069E+03  0.13757925069E+03  0.00000000000E+00 0.  1.
         21   -1    0    0  503  502  0.00000000000E+00 -0.00000000000E+00 -0.48454732072E+01  0.48454732072E+01  0.00000000000E+00 0.  1.
         21    1    1    2  503  501  0.71465096544E+01  0.19328471745E+02  0.23463133002E+02  0.31227888666E+02  0.00000000000E+00 0.  1.
         -1    1    1    2    0  502 -0.71465096544E+01 -0.19328471745E+02  0.10927064448E+03  0.11119683523E+03  0.00000000000E+00 0.  1.
<mgrwt>
<rscale>  2 0.20607339E+02</rscale>
<asrwt>0</asrwt>
<pdfrwt beam="2">  1       21 0.74545752E-03 0.20607339E+02</pdfrwt>
<pdfrwt beam="1">  1       -1 0.21166036E-01 0.20607339E+02</pdfrwt>
<totfact> 0.62226955E+06</totfact>
</mgrwt>
</event>
<event>
 4    1  0.2177230E+006  0.2525376E+02  0.7546771E-02  0.1657384E+00
         21   -1    0    0  503  502  0.00000000000E+00  0.00000000000E+00  0.10068785782E+02  0.10068785782E+02  0.00000000000E+00 0. -1.
         -2   -1    0    0    0  501 -0.00000000000E+00 -0.00000000000E+00 -0.62201445022E+03  0.62201445022E+03  0.00000000000E+00 0. -1.
         21    1    1    2  503  501  0.25250088481E+02  0.43071129199E+00 -0.64543578542E+01  0.26065517755E+02  0.00000000000E+00 0. -1.
         -2    1    1    2    0  502 -0.25250088481E+02 -0.43071129199E+00 -0.60549130659E+03  0.60601771825E+03  0.00000000000E+00 0. -1.
<mgrwt>
<rscale>  2 0.25253762E+02</rscale>
<asrwt>0</asrwt>
<pdfrwt beam="1">  1       21 0.15490441E-02 0.25253762E+02</pdfrwt>
<pdfrwt beam="2">  1       -2 0.95694523E-01 0.25253762E+02</pdfrwt>
<totfact> 0.11625017E+05</totfact>
</mgrwt>
</event>
<event>
 4    1  0.2177230E+006  0.2566665E+02  0.7546771E-02  0.1651607E+00
         21   -1    0    0  501  502  0.00000000000E+00  0.00000000000E+00  0.20067437983E+03  0.20067437983E+03  0.00000000000E+00 0.  1.
          2   -1    0    0  503    0 -0.00000000000E+00 -0.00000000000E+00 -0.63787494950E+01  0.63787494950E+01  0.00000000000E+00 0.  1.
         21    1    1    2  503  502  0.11499141889E+02 -0.22946607912E+02  0.16927182037E+03  0.17120667701E+03  0.00000000000E+00 0.  1.
          2    1    1    2  501    0 -0.11499141889E+02  0.22946607912E+02  0.25023809960E+02  0.35846452318E+02  0.00000000000E+00 0.  1.
<mgrwt>
<rscale>  2 0.25666653E+02</rscale>
<asrwt>0</asrwt>
<pdfrwt beam="1">  1       21 0.30872977E-01 0.25666653E+02</pdfrwt>
<pdfrwt beam="2">  1        2 0.98134623E-03 0.25666653E+02</pdfrwt>
<totfact> 0.12951758E+06</totfact>
</mgrwt>
</event>
<event>
 4    1  0.2177230E+006  0.2131357E+02  0.7546771E-02  0.1720401E+00
          2   -1    0    0  503    0 -0.00000000000E+00  0.00000000000E+00  0.34342261337E+03  0.34342261337E+03  0.00000000000E+00 0.  1.
         21   -1    0    0  501  502  0.00000000000E+00 -0.00000000000E+00 -0.13970791095E+02  0.13970791095E+02  0.00000000000E+00 0.  1.
         21    1    1    2  503  502 -0.18811850178E+02  0.10019102616E+02 -0.53008881613E+01  0.21962867292E+02  0.00000000000E+00 0.  1.
          2    1    1    2  501    0  0.18811850178E+02 -0.10019102616E+02  0.33475271043E+03  0.33543053717E+03  0.00000000000E+00 0.  1.
<mgrwt>
<rscale>  2 0.21313567E+02</rscale>
<asrwt>0</asrwt>
<pdfrwt beam="2">  1       21 0.21493527E-02 0.21313567E+02</pdfrwt>
<pdfrwt beam="1">  1        2 0.52834242E-01 0.21313567E+02</pdfrwt>
<totfact> 0.97064330E+05</totfact>
</mgrwt>
</event>
<event>
 4    1  0.2177230E+006  0.2095579E+02  0.7546771E-02  0.1726963E+00
         21   -1    0    0  503  502  0.00000000000E+00  0.00000000000E+00  0.33331985525E+03  0.33331985525E+03  0.00000000000E+00 0. -1.
          2   -1    0    0  502    0 -0.00000000000E+00 -0.00000000000E+00 -0.54269228501E+03  0.54269228501E+03  0.00000000000E+00 0.  1.
         21    1    1    2  503  501 -0.17683496582E+02  0.11244515325E+02  0.33278786063E+03  0.33344700532E+03  0.00000000000E+00 0. -1.
          2    1    1    2  501    0  0.17683496582E+02 -0.11244515325E+02 -0.54216029039E+03  0.54256513494E+03  0.00000000000E+00 0.  1.
<mgrwt>
<rscale>  2 0.20955791E+02</rscale>
<asrwt>0</asrwt>
<pdfrwt beam="1">  1       21 0.51279978E-01 0.20955791E+02</pdfrwt>
<pdfrwt beam="2">  1        2 0.83491120E-01 0.20955791E+02</pdfrwt>
<totfact> 0.29790233E+03</totfact>
</mgrwt>
</event>
<event>
 4    1  0.2177230E+006  0.3426015E+02  0.7546771E-02  0.1555270E+00
          2   -1    0    0  503    0 -0.00000000000E+00  0.00000000000E+00  0.10489779062E+03  0.10489779062E+03  0.00000000000E+00 0. -1.
         21   -1    0    0  501  502  0.00000000000E+00 -0.00000000000E+00 -0.25094611525E+02  0.25094611525E+02  0.00000000000E+00 0.  1.
         21    1    1    2  503  502  0.33938360784E+02  0.46846142945E+01 -0.84804709916E+01  0.35294140194E+02  0.00000000000E+00 0.  1.
          2    1    1    2  501    0 -0.33938360784E+02 -0.46846142945E+01  0.88283650087E+02  0.94698261951E+02  0.00000000000E+00 0. -1.
<mgrwt>
<rscale>  2 0.34260151E+02</rscale>
<asrwt>0</asrwt>
<pdfrwt beam="2">  1       21 0.38607095E-02 0.34260151E+02</pdfrwt>
<pdfrwt beam="1">  1        2 0.16138121E-01 0.34260151E+02</pdfrwt>
<totfact> 0.14416149E+06</totfact>
</mgrwt>
</event>
<event>
 4    1  0.2177230E+006  0.2029810E+02  0.7546771E-02  0.1739464E+00
         -1   -1    0    0    0  501 -0.00000000000E+00  0.00000000000E+00  0.18580574629E+02  0.18580574629E+02  0.00000000000E+00 0. -1.
         21   -1    0    0  503  502  0.00000000000E+00 -0.00000000000E+00 -0.80546544828E+02  0.80546544828E+02  0.00000000000E+00 0. -1.
         21    1    1    2  503  501 -0.87678177819E+01 -0.18306779136E+02 -0.73176132142E+02  0.75939180311E+02  0.00000000000E+00 0. -1.
         -1    1    1    2    0  502  0.87678177819E+01  0.18306779136E+02  0.11210161944E+02  0.23187939145E+02  0.00000000000E+00 0. -1.
<mgrwt>
<rscale>  2 0.20298098E+02</rscale>
<asrwt>0</asrwt>
<pdfrwt beam="2">  1       21 0.12391776E-01 0.20298098E+02</pdfrwt>
<pdfrwt beam="1">  1       -1 0.28585500E-02 0.20298098E+02</pdfrwt>
<totfact> 0.13434199E+06</totfact>
</mgrwt>
</event>
<event>
 4    1  0.2177230E+006  0.2253808E+02  0.7546771E-02  0.1699109E+00
         21   -1    0    0  503  502  0.00000000000E+00  0.00000000000E+00  0.29056173833E+01  0.29056173833E+01  0.00000000000E+00 0. -1.
          2   -1    0    0  502    0 -0.00000000000E+00 -0.00000000000E+00 -0.11393194955E+04  0.11393194955E+04  0.00000000000E+00 0.  1.
         21    1    1    2  503  501  0.21105498430E+02  0.79071603075E+01 -0.42734983901E+02  0.48314015535E+02  0.00000000000E+00 0. -1.
          2    1    1    2  501    0 -0.21105498430E+02 -0.79071603075E+01 -0.10936788943E+04  0.10939110974E+04  0.00000000000E+00 0.  1.
<mgrwt>
<rscale>  2 0.22538084E+02</rscale>
<asrwt>0</asrwt>
<pdfrwt beam="1">  1       21 0.44701807E-03 0.22538084E+02</pdfrwt>
<pdfrwt beam="2">  1        2 0.17527992E+00 0.22538084E+02</pdfrwt>
<totfact> 0.28155393E+06</totfact>
</mgrwt>
</event>
<event>
 4    1  0.2177230E+006  0.4426785E+02  0.7546771E-02  0.1478965E+00
         21   -1    0    0  501  502  0.00000000000E+00  0.00000000000E+00  0.13481907814E+02  0.13481907814E+02  0.00000000000E+00 0. -1.
          2   -1    0    0  503    0 -0.00000000000E+00 -0.00000000000E+00 -0.29082535369E+03  0.29082535369E+03  0.00000000000E+00 0.  1.
         21    1    1    2  503  502 -0.40466848216E+01 -0.44082500116E+02 -0.31060968652E+02  0.54077964534E+02  0.00000000000E+00 0. -1.
          2    1    1    2  501    0  0.40466848216E+01  0.44082500116E+02 -0.24628247722E+03  0.25022929697E+03  0.00000000000E+00 0.  1.
<mgrwt>
<rscale>  2 0.44267849E+02</rscale>
<asrwt>0</asrwt>
<pdfrwt beam="1">  1       21 0.20741397E-02 0.44267849E+02</pdfrwt>
<pdfrwt beam="2">  1        2 0.44742362E-01 0.44267849E+02</pdfrwt>
<totfact> 0.13761051E+06</totfact>
</mgrwt>
</event>
<event>
 4    1  0.2177230E+006  0.2257809E+02  0.7546771E-02  0.1698442E+00
         -1   -1    0    0    0  501 -0.00000000000E+00  0.00000000000E+00  0.23256243680E+03  0.23256243680E+03  0.00000000000E+00 0.  1.
         21   -1    0    0  503  502  0.00000000000E+00 -0.00000000000E+00 -0.94000348149E+01  0.94000348149E+01  0.00000000000E+00 0.  1.
         21    1    1    2  503  501  0.11669215737E+02 -0.19328728705E+02  0.56405671980E+01  0.23272007812E+02  0.00000000000E+00 0.  1.
         -1    1    1    2    0  502 -0.11669215737E+02  0.19328728705E+02  0.21752183479E+03  0.21869046381E+03  0.00000000000E+00 0.  1.
<mgrwt>
<rscale>  2 0.22578094E+02</rscale>
<asrwt>0</asrwt>
<pdfrwt beam="2">  1       21 0.14461594E-02 0.22578094E+02</pdfrwt>
<pdfrwt beam="1">  1       -1 0.35778832E-01 0.22578094E+02</pdfrwt>
<totfact> 0.10352211E+06</totfact>
</mgrwt>
</event>
<event>
 4    1  0.2177230E+006  0.2042817E+02  0.7546771E-02  0.1736945E+00
         -3   -1    0    0    0  501 -0.00000000000E+00  0.00000000000E+00  0.63962201823E+02  0.63962201823E+02  0.00000000000E+00 0. -1.
         21   -1    0    0  501  502  0.00000000000E+00 -0.00000000000E+00 -0.90290704751E+02  0.90290704751E+02  0.00000000000E+00 0. -1.
         21    1    1    2  503  502  0.87603618018E+01  0.18454440914E+02 -0.87451916266E+02  0.89806168980E+02  0.00000000000E+00 0. -1.
         -3    1    1    2    0  503 -0.87603618018E+01 -0.18454440914E+02  0.61123413338E+02  0.64446737593E+02  0.00000000000E+00 0. -1.
<mgrwt>
<rscale>  2 0.20428175E+02</rscale>
<asrwt>0</asrwt>
<pdfrwt beam="2">  1       21 0.13890878E-01 0.20428175E+02</pdfrwt>
<pdfrwt beam="1">  1       -3 0.98403388E-02 0.20428175E+02</pdfrwt>
<totfact> 0.11346780E+05</totfact>
</mgrwt>
</event>
<event>
 4    1  0.2177230E+006  0.2186219E+02  0.7546771E-02  0.1710646E+00
          2   -1    0    0  502    0 -0.00000000000E+00  0.00000000000E+00  0.16285932165E+04  0.16285932165E+04  0.00000000000E+00 0. -1.
         21   -1    0    0  503  502  0.00000000000E+00 -0.00000000000E+00 -0.40817550683E+00  0.40817550683E+00  0.00000000000E+00 0. -1.
         21    1    1    2  503  501 -0.16804194131E+02  0.13984788962E+02  0.38232878657E+03  0.38295333436E+03  0.00000000000E+00 0. -1.
          2    1    1    2  501    0  0.16804194131E+02 -0.13984788962E+02  0.12458562544E+04  0.12460480576E+04  0.00000000000E+00 0. -1.
<mgrwt>
<rscale>  2 0.21862188E+02</rscale>
<asrwt>0</asrwt>
<pdfrwt beam="2">  1       21 0.62797536E-04 0.21862188E+02</pdfrwt>
<pdfrwt beam="1">  1        2 0.25054760E+00 0.21862188E+02</pdfrwt>
<totfact> 0.27321630E+07</totfact>
</mgrwt>
</event>
<event>
 4    1  0.2177230E+006  0.2059180E+02  0.7546771E-02  0.1733809E+00
         -1   -1    0    0    0  501 -0.00000000000E+00  0.00000000000E+00  0.17716981771E+03  0.17716981771E+03  0.00000000000E+00 0.  1.
         21   -1    0    0  501  502  0.00000000000E+00 -0.00000000000E+00 -0.58018284396E+01  0.58018284396E+01  0.00000000000E+00 0.  1.
         21    1    1    2  503  502 -0.12097932135E+02 -0.16663199701E+02  0.15562006339E+02  0.25810816095E+02  0.00000000000E+00 0.  1.
         -1    1    1    2    0  503  0.12097932135E+02  0.16663199701E+02  0.15580598293E+03  0.15716083005E+03  0.00000000000E+00 0.  1.
<mgrwt>
<rscale>  2 0.20591799E+02</rscale>
<asrwt>0</asrwt>
<pdfrwt beam="2">  1       21 0.89258913E-03 0.20591799E+02</pdfrwt>
<pdfrwt beam="1">  1       -1 0.27256891E-01 0.20591799E+02</pdfrwt>
<totfact> 0.32229810E+06</totfact>
</mgrwt>
</event>
<event>
 4    1  0.2177230E+006  0.2090872E+02  0.7546771E-02  0.1727838E+00
         21   -1    0    0  503  502  0.00000000000E+00  0.00000000000E+00  0.39220864037E+02  0.39220864037E+02  0.00000000000E+00 0. -1.
         -3   -1    0    0    0  501 -0.00000000000E+00 -0.00000000000E+00 -0.48538300082E+02  0.48538300082E+02  0.00000000000E+00 0. -1.
         21    1    1    2  503  501 -0.14457554272E+02  0.15104755916E+02  0.33854384991E+02  0.39790625905E+02  0.00000000000E+00 0. -1.
         -3    1    1    2    0  502  0.14457554272E+02 -0.15104755916E+02 -0.43171821036E+02  0.47968538214E+02  0.00000000000E+00 0. -1.
<mgrwt>
<rscale>  2 0.20908719E+02</rscale>
<asrwt>0</asrwt>
<pdfrwt beam="1">  1       21 0.60339791E-02 0.20908719E+02</pdfrwt>
<pdfrwt beam="2">  1       -3 0.74674308E-02 0.20908719E+02</pdfrwt>
<totfact> 0.68739792E+05</totfact>
</mgrwt>
</event>
<event>
 4    1  0.2177230E+006  0.2125022E+02  0.7546771E-02  0.1721551E+00
         21   -1    0    0  501  502  0.00000000000E+00  0.00000000000E+00  0.15322624758E+01  0.15322624758E+01  0.00000000000E+00 0. -1.
          2   -1    0    0  503    0 -0.00000000000E+00 -0.00000000000E+00 -0.33570040664E+03  0.33570040664E+03  0.00000000000E+00 0. -1.
         21    1    1    2  503  502  0.12279645620E+02  0.17343068436E+02 -0.10816315360E+03  0.11023084648E+03  0.00000000000E+00 0. -1.
          2    1    1    2  501    0 -0.12279645620E+02 -0.17343068436E+02 -0.22600499056E+03  0.22700182263E+03  0.00000000000E+00 0. -1.
<mgrwt>
<rscale>  2 0.21250217E+02</rscale>
<asrwt>0</asrwt>
<pdfrwt beam="1">  1       21 0.23573268E-03 0.21250217E+02</pdfrwt>
<pdfrwt beam="2">  1        2 0.51646218E-01 0.21250217E+02</pdfrwt>
<totfact> 0.26464483E+07</totfact>
</mgrwt>
</event>
<event>
 4    1  0.2177230E+006  0.2001732E+02  0.7546771E-02  0.1744984E+00
         21   -1    0    0  503  502  0.00000000000E+00  0.00000000000E+00  0.66748898114E+03  0.66748898114E+03  0.00000000000E+00 0.  1.
          3   -1    0    0  502    0 -0.00000000000E+00 -0.00000000000E+00 -0.37205566990E+01  0.37205566990E+01  0.00000000000E+00 0. -1.
         21    1    1    2  503  501 -0.64880420593E+01  0.18936696392E+02  0.63922441362E+03  0.63953775818E+03  0.00000000000E+00 0.  1.
          3    1    1    2  501    0  0.64880420593E+01 -0.18936696392E+02  0.24544010817E+02  0.31671779663E+02  0.00000000000E+00 0. -1.
<mgrwt>
<rscale>  2 0.20017321E+02</rscale>
<asrwt>0</asrwt>
<pdfrwt beam="1">  1       21 0.10269052E+00 0.20017321E+02</pdfrwt>
<pdfrwt beam="2">  1        3 0.57239387E-03 0.20017321E+02</pdfrwt>
<totfact> 0.16768670E+05</totfact>
</mgrwt>
</event>
<event>
 4    1  0.2177230E+006  0.3547462E+02  0.7546771E-02  0.1544426E+00
         -3   -1    0    0    0  501 -0.00000000000E+00  0.00000000000E+00  0.10208501408E+03  0.10208501408E+03  0.00000000000E+00 0.  1.
         21   -1    0    0  503  502  0.00000000000E+00 -0.00000000000E+00 -0.91532266653E+03  0.91532266653E+03  0.00000000000E+00 0.  1.
         21    1    1    2  503  501  0.35462012386E+02 -0.94552826842E+00 -0.91188547367E+03  0.91257523823E+03  0.00000000000E+00 0.  1.
         -3    1    1    2    0  502 -0.35462012386E+02  0.94552826842E+00  0.98647821211E+02  0.10483244238E+03  0.00000000000E+00 0.  1.
<mgrwt>
<rscale>  2 0.35474616E+02</rscale>
<asrwt>0</asrwt>
<pdfrwt beam="2">  1       21 0.14081887E+00 0.35474616E+02</pdfrwt>
<pdfrwt beam="1">  1       -3 0.15705387E-01 0.35474616E+02</pdfrwt>
<totfact> 0.61824792E+02</totfact>
</mgrwt>
</event>
<event>
 4    1  0.2177230E+006  0.2831626E+02  0.7546771E-02  0.1617482E+00
         21   -1    0    0  503  502  0.00000000000E+00  0.00000000000E+00  0.80835750651E+00  0.80835750651E+00  0.00000000000E+00 0.  1.
          2   -1    0    0  502    0 -0.00000000000E+00 -0.00000000000E+00 -0.16123275622E+04  0.16123275622E+04  0.00000000000E+00 0. -1.
         21    1    1    2  503  501  0.20459283174E+02 -0.19576215973E+02 -0.30542611631E+03  0.30673591740E+03  0.00000000000E+00 0.  1.
          2    1    1    2  501    0 -0.20459283174E+02  0.19576215973E+02 -0.13060930884E+04  0.13064000023E+04  0.00000000000E+00 0. -1.
<mgrwt>
<rscale>  2 0.28316259E+02</rscale>
<asrwt>0</asrwt>
<pdfrwt beam="1">  1       21 0.12436203E-03 0.28316259E+02</pdfrwt>
<pdfrwt beam="2">  1        2 0.24805172E+00 0.28316259E+02</pdfrwt>
<totfact> 0.11146944E+07</totfact>
</mgrwt>
</event>
<event>
 4    1  0.2177230E+006  0.3211213E+02  0.7546771E-02  0.1575851E+00
          2   -1    0    0  502    0 -0.00000000000E+00  0.00000000000E+00  0.28826387177E+02  0.28826387177E+02  0.00000000000E+00 0.  1.
         21   -1    0    0  503  502  0.00000000000E+00 -0.00000000000E+00 -0.84281606729E+02  0.84281606729E+02  0.00000000000E+00 0. -1.
         21    1    1    2  503  501 -0.25476207270E+00 -0.32111115542E+02 -0.70632722821E+02  0.77589755627E+02  0.00000000000E+00 0. -1.
          2    1    1    2  501    0  0.25476207270E+00  0.32111115542E+02  0.15177503269E+02  0.35518238280E+02  0.00000000000E+00 0.  1.
<mgrwt>
<rscale>  2 0.32112126E+02</rscale>
<asrwt>0</asrwt>
<pdfrwt beam="2">  1       21 0.12966401E-01 0.32112126E+02</pdfrwt>
<pdfrwt beam="1">  1        2 0.44348289E-02 0.32112126E+02</pdfrwt>
<totfact> 0.89672700E+05</totfact>
</mgrwt>
</event>
<event>
 4    1  0.2177230E+006  0.3444616E+02  0.7546771E-02  0.1553575E+00
         21   -1    0    0  501  502  0.00000000000E+00  0.00000000000E+00  0.35995928136E+02  0.35995928136E+02  0.00000000000E+00 0.  1.
          1   -1    0    0  503    0 -0.00000000000E+00 -0.00000000000E+00 -0.19408214812E+03  0.19408214812E+03  0.00000000000E+00 0.  1.
         21    1    1    2  503  502  0.33920096787E+02  0.59970795316E+01  0.25772476737E+02  0.43020442653E+02  0.00000000000E+00 0.  1.
          1    1    1    2  501    0 -0.33920096787E+02 -0.59970795316E+01 -0.18385869672E+03  0.18705763360E+03  0.00000000000E+00 0.  1.
<mgrwt>
<rscale>  2 0.34446160E+02</rscale>
<asrwt>0</asrwt>
<pdfrwt beam="1">  1       21 0.55378353E-02 0.34446160E+02</pdfrwt>
<pdfrwt beam="2">  1        1 0.29858791E-01 0.34446160E+02</pdfrwt>
<totfact> 0.32101231E+05</totfact>
</mgrwt>
</event>
<event>
 4    1  0.2177230E+006  0.2308641E+02  0.7546771E-02  0.1690113E+00
          2   -1    0    0  502    0 -0.00000000000E+00  0.00000000000E+00  0.46594560987E+03  0.46594560987E+03  0.00000000000E+00 0.  1.
         21   -1    0    0  503  502  0.00000000000E+00 -0.00000000000E+00 -0.22640246367E+01  0.22640246367E+01  0.00000000000E+00 0.  1.
         21    1    1    2  503  501  0.17270549733E+02 -0.15320262504E+02  0.67173138705E+02  0.71029662076E+02  0.00000000000E+00 0.  1.
          2    1    1    2  501    0 -0.17270549733E+02  0.15320262504E+02  0.39650844653E+03  0.39717997243E+03  0.00000000000E+00 0.  1.
<mgrwt>
<rscale>  2 0.23086410E+02</rscale>
<asrwt>0</asrwt>
<pdfrwt beam="2">  1       21 0.34831185E-03 0.23086410E+02</pdfrwt>
<pdfrwt beam="1">  1        2 0.71683864E-01 0.23086410E+02</pdfrwt>
<totfact> 0.11122783E+07</totfact>
</mgrwt>
</event>
<event>
 4    1  0.2177230E+006  0.3340386E+02  0.7546771E-02  0.1563249E+00
          2   -1    0    0  502    0 -0.00000000000E+00  0.00000000000E+00  0.85639011804E+03  0.85639011804E+03  0.00000000000E+00 0. -1.
         21   -1    0    0  503  502  0.00000000000E+00 -0.00000000000E+00 -0.37299735535E+01  0.37299735535E+01  0.00000000000E+00 0.  1.
         21    1    1    2  503  501 -0.28371859518E+02  0.17631089187E+02  0.79421632820E+02  0.86160393907E+02  0.00000000000E+00 0.  1.
          2    1    1    2  501    0  0.28371859518E+02 -0.17631089187E+02  0.77323851166E+03  0.77395969768E+03  0.00000000000E+00 0. -1.
<mgrwt>
<rscale>  2 0.33403858E+02</rscale>
<asrwt>0</asrwt>
<pdfrwt beam="2">  1       21 0.57384277E-03 0.33403858E+02</pdfrwt>
<pdfrwt beam="1">  1        2 0.13175217E+00 0.33403858E+02</pdfrwt>
<totfact> 0.29953689E+06</totfact>
</mgrwt>
</event>
<event>
 4    1  0.2177230E+006  0.2437577E+02  0.7546771E-02  0.1670133E+00
         21   -1    0    0  501  502  0.00000000000E+00  0.00000000000E+00  0.52519621956E+02  0.52519621956E+02  0.00000000000E+00 0. -1.
         -3   -1    0    0    0  501 -0.00000000000E+00 -0.00000000000E+00 -0.20192637531E+02  0.20192637531E+02  0.00000000000E+00 0. -1.
         21    1    1    2  503  502  0.24323174515E+02 -0.16004164409E+01  0.40271854998E+02  0.47074414030E+02  0.00000000000E+00 0. -1.
         -3    1    1    2    0  503 -0.24323174515E+02  0.16004164409E+01 -0.79448705725E+01  0.25637845457E+02  0.00000000000E+00 0. -1.
<mgrwt>
<rscale>  2 0.24375770E+02</rscale>
<asrwt>0</asrwt>
<pdfrwt beam="1">  1       21 0.80799418E-02 0.24375770E+02</pdfrwt>
<pdfrwt beam="2">  1       -3 0.31065596E-02 0.24375770E+02</pdfrwt>
<totfact> 0.16929392E+06</totfact>
</mgrwt>
</event>
<event>
 4    1  0.2177230E+006  0.5356206E+02  0.7546771E-02  0.1427024E+00
          3   -1    0    0  503    0 -0.00000000000E+00  0.00000000000E+00  0.21244361195E+02  0.21244361195E+02  0.00000000000E+00 0.  1.
         21   -1    0    0  501  502  0.00000000000E+00 -0.00000000000E+00 -0.23511127095E+03  0.23511127095E+03  0.00000000000E+00 0.  1.
         21    1    1    2  503  502 -0.46022038942E+02 -0.27401934328E+02 -0.19055634593E+03  0.19794093828E+03  0.00000000000E+00 0.  1.
          3    1    1    2  501    0  0.46022038942E+02  0.27401934328E+02 -0.23310563822E+02  0.58414693862E+02  0.00000000000E+00 0.  1.
<mgrwt>
<rscale>  2 0.53562058E+02</rscale>
<asrwt>0</asrwt>
<pdfrwt beam="2">  1       21 0.36170963E-01 0.53562058E+02</pdfrwt>
<pdfrwt beam="1">  1        3 0.32683634E-02 0.53562058E+02</pdfrwt>
<totfact> 0.13724462E+05</totfact>
</mgrwt>
</event>
<event>
 4    1  0.2177230E+006  0.2109471E+02  0.7546771E-02  0.1724396E+00
         21   -1    0    0  501  502  0.00000000000E+00  0.00000000000E+00  0.89668713892E+02  0.89668713892E+02  0.00000000000E+00 0.  1.
         -2   -1    0    0    0  501 -0.00000000000E+00 -0.00000000000E+00 -0.27031712372E+02  0.27031712372E+02  0.00000000000E+00 0. -1.
         21    1    1    2  503  502  0.10391627354E+02  0.18357580976E+02  0.84041299791E+02  0.86648293514E+02  0.00000000000E+00 0.  1.
         -2    1    1    2    0  503 -0.10391627354E+02 -0.18357580976E+02 -0.21404298270E+02  0.30052132750E+02  0.00000000000E+00 0. -1.
<mgrwt>
<rscale>  2 0.21094708E+02</rscale>
<asrwt>0</asrwt>
<pdfrwt beam="1">  1       21 0.13795187E-01 0.21094708E+02</pdfrwt>
<pdfrwt beam="2">  1       -2 0.41587250E-02 0.21094708E+02</pdfrwt>
<totfact> 0.66238784E+05</totfact>
</mgrwt>
</event>
<event>
 4    1  0.2177230E+006  0.2030746E+02  0.7546771E-02  0.1739282E+00
         21   -1    0    0  501  502  0.00000000000E+00  0.00000000000E+00  0.36178243767E+01  0.36178243767E+01  0.00000000000E+00 0. -1.
          2   -1    0    0  503    0 -0.00000000000E+00 -0.00000000000E+00 -0.15225350995E+03  0.15225350995E+03  0.00000000000E+00 0. -1.
         21    1    1    2  503  502 -0.66674711197E+01  0.19181708928E+02 -0.35247322432E+02  0.40678825784E+02  0.00000000000E+00 0. -1.
          2    1    1    2  501    0  0.66674711197E+01 -0.19181708928E+02 -0.11338836314E+03  0.11519250854E+03  0.00000000000E+00 0. -1.
<mgrwt>
<rscale>  2 0.20307465E+02</rscale>
<asrwt>0</asrwt>
<pdfrwt beam="1">  1       21 0.55658847E-03 0.20307465E+02</pdfrwt>
<pdfrwt beam="2">  1        2 0.23423613E-01 0.20307465E+02</pdfrwt>
<totfact> 0.16407661E+07</totfact>
</mgrwt>
</event>
<event>
 4    1  0.2177230E+006  0.2175473E+02  0.7546771E-02  0.1712529E+00
         21   -1    0    0  503  502  0.00000000000E+00  0.00000000000E+00  0.46651082377E+01  0.46651082377E+01  0.00000000000E+00 0. -1.
          4   -1    0    0  502    0 -0.00000000000E+00 -0.00000000000E+00 -0.21567326971E+03  0.21567326971E+03  0.00000000000E+00 0.  1.
         21    1    1    2  503  501  0.15260315839E+01  0.21701142523E+02 -0.25328505371E+02  0.33388643931E+02  0.00000000000E+00 0. -1.
          4    1    1    2  501    0 -0.15260315839E+01 -0.21701142523E+02 -0.18567965610E+03  0.18694973402E+03  0.00000000000E+00 0.  1.
<mgrwt>
<rscale>  2 0.21754732E+02</rscale>
<asrwt>0</asrwt>
<pdfrwt beam="1">  1       21 0.71770905E-03 0.21754732E+02</pdfrwt>
<pdfrwt beam="2">  1        4 0.33180499E-01 0.21754732E+02</pdfrwt>
<totfact> 0.12392756E+06</totfact>
</mgrwt>
</event>
<event>
 4    1  0.2177230E+006  0.2871292E+02  0.7546771E-02  0.1612767E+00
         21   -1    0    0  503  502  0.00000000000E+00  0.00000000000E+00  0.23904130199E+02  0.23904130199E+02  0.00000000000E+00 0. -1.
          1   -1    0    0  502    0 -0.00000000000E+00 -0.00000000000E+00 -0.60158567560E+03  0.60158567560E+03  0.00000000000E+00 0. -1.
         21    1    1    2  503  501 -0.19264325256E+02  0.21291254032E+02  0.14806939101E+02  0.32305992809E+02  0.00000000000E+00 0. -1.
          1    1    1    2  501    0  0.19264325256E+02 -0.21291254032E+02 -0.59248848450E+03  0.59318381299E+03  0.00000000000E+00 0. -1.
<mgrwt>
<rscale>  2 0.28712919E+02</rscale>
<asrwt>0</asrwt>
<pdfrwt beam="1">  1       21 0.36775586E-02 0.28712919E+02</pdfrwt>
<pdfrwt beam="2">  1        1 0.92551641E-01 0.28712919E+02</pdfrwt>
<totfact> 0.15721836E+05</totfact>
</mgrwt>
</event>
<event>
 4    1  0.2177230E+006  0.2837619E+02  0.7546771E-02  0.1616764E+00
         -1   -1    0    0    0  501 -0.00000000000E+00  0.00000000000E+00  0.86089900008E+01  0.86089900008E+01  0.00000000000E+00 0.  1.
         21   -1    0    0  503  502  0.00000000000E+00 -0.00000000000E+00 -0.11334152973E+03  0.11334152973E+03  0.00000000000E+00 0. -1.
         21    1    1    2  503  501 -0.17372510022E+02 -0.22436664848E+02 -0.77858417077E+02  0.82868215521E+02  0.00000000000E+00 0. -1.
         -1    1    1    2    0  502  0.17372510022E+02  0.22436664848E+02 -0.26874122651E+02  0.39082304208E+02  0.00000000000E+00 0.  1.
<mgrwt>
<rscale>  2 0.28376188E+02</rscale>
<asrwt>0</asrwt>
<pdfrwt beam="2">  1       21 0.17437157E-01 0.28376188E+02</pdfrwt>
<pdfrwt beam="1">  1       -1 0.13244601E-02 0.28376188E+02</pdfrwt>
<totfact> 0.23283061E+06</totfact>
</mgrwt>
</event>
<event>
 4    1  0.2177230E+006  0.2043773E+02  0.7546771E-02  0.1736761E+00
          2   -1    0    0  502    0 -0.00000000000E+00  0.00000000000E+00  0.14687299156E+04  0.14687299156E+04  0.00000000000E+00 0. -1.
         21   -1    0    0  503  502  0.00000000000E+00 -0.00000000000E+00 -0.12270380486E+02  0.12270380486E+02  0.00000000000E+00 0.  1.
         21    1    1    2  503  501  0.20436115483E+02 -0.25707028487E+00 -0.36386233607E+01  0.20759105981E+02  0.00000000000E+00 0.  1.
          2    1    1    2  501    0 -0.20436115483E+02  0.25707028487E+00  0.14600981584E+04  0.14602411901E+04  0.00000000000E+00 0. -1.
<mgrwt>
<rscale>  2 0.20437732E+02</rscale>
<asrwt>0</asrwt>
<pdfrwt beam="2">  1       21 0.18877520E-02 0.20437732E+02</pdfrwt>
<pdfrwt beam="1">  1        2 0.22595831E+00 0.20437732E+02</pdfrwt>
<totfact> 0.22238030E+05</totfact>
</mgrwt>
</event>
<event>
 4    1  0.2177230E+006  0.2160020E+02  0.7546771E-02  0.1715259E+00
         21   -1    0    0  501  502  0.00000000000E+00  0.00000000000E+00  0.98645140356E+02  0.98645140356E+02  0.00000000000E+00 0. -1.
         -1   -1    0    0    0  501 -0.00000000000E+00 -0.00000000000E+00 -0.90501679002E+02  0.90501679002E+02  0.00000000000E+00 0. -1.
         21    1    1    2  503  502 -0.21595408092E+02  0.45511270736E+00  0.96140697187E+02  0.98537314931E+02  0.00000000000E+00 0. -1.
         -1    1    1    2    0  503  0.21595408092E+02 -0.45511270736E+00 -0.87997235832E+02  0.90609504426E+02  0.00000000000E+00 0. -1.
<mgrwt>
<rscale>  2 0.21600203E+02</rscale>
<asrwt>0</asrwt>
<pdfrwt beam="1">  1       21 0.15176175E-01 0.21600203E+02</pdfrwt>
<pdfrwt beam="2">  1       -1 0.13923335E-01 0.21600203E+02</pdfrwt>
<totfact> 0.10379856E+05</totfact>
</mgrwt>
</event>
<event>
 4    1  0.2177230E+006  0.3127232E+02  0.7546771E-02  0.1584436E+00
         21   -1    0    0  503  502  0.00000000000E+00  0.00000000000E+00  0.82072441640E+02  0.82072441640E+02  0.00000000000E+00 0.  1.
          1   -1    0    0  502    0 -0.00000000000E+00 -0.00000000000E+00 -0.28587286647E+03  0.28587286647E+03  0.00000000000E+00 0.  1.
         21    1    1    2  503  501  0.80197445758E+01  0.30226501615E+02  0.78197447404E+02  0.84218753752E+02  0.00000000000E+00 0.  1.
          1    1    1    2  501    0 -0.80197445758E+01 -0.30226501615E+02 -0.28199787223E+03  0.28372655435E+03  0.00000000000E+00 0.  1.
<mgrwt>
<rscale>  2 0.31272315E+02</rscale>
<asrwt>0</asrwt>
<pdfrwt beam="1">  1       21 0.12626529E-01 0.31272315E+02</pdfrwt>
<pdfrwt beam="2">  1        1 0.43980442E-01 0.31272315E+02</pdfrwt>
<totfact> 0.51346815E+04</totfact>
</mgrwt>
</event>
<event>
 4    1  0.2177230E+006  0.4444977E+02  0.7546771E-02  0.1477806E+00
          1   -1    0    0  502    0 -0.00000000000E+00  0.00000000000E+00  0.17696230521E+04  0.17696230521E+04  0.00000000000E+00 0.  1.
         21   -1    0    0  503  502  0.00000000000E+00 -0.00000000000E+00 -0.36841789880E+01  0.36841789880E+01  0.00000000000E+00 0. -1.
         21    1    1    2  503  501 -0.36247961501E+01  0.44301724811E+02  0.14276088876E+03  0.14952074547E+03  0.00000000000E+00 0. -1.
          1    1    1    2  501    0  0.36247961501E+01 -0.44301724811E+02  0.16231779844E+04  0.16237864857E+04  0.00000000000E+00 0.  1.
<mgrwt>
<rscale>  2 0.44449769E+02</rscale>
<asrwt>0</asrwt>
<pdfrwt beam="2">  1       21 0.56679818E-03 0.44449769E+02</pdfrwt>
<pdfrwt beam="1">  1        1 0.27224902E+00 0.44449769E+02</pdfrwt>
<totfact> 0.46852164E+05</totfact>
</mgrwt>
</event>
<event>
 4    1  0.2177230E+006  0.3709781E+02  0.7546771E-02  0.1530723E+00
         -3   -1    0    0    0  501 -0.00000000000E+00  0.00000000000E+00  0.30733082621E+02  0.30733082621E+02  0.00000000000E+00 0.  1.
         21   -1    0    0  503  502  0.00000000000E+00 -0.00000000000E+00 -0.93485519066E+02  0.93485519066E+02  0.00000000000E+00 0.  1.
         21    1    1    2  503  501 -0.17580769552E+02 -0.32667478882E+02 -0.76206413127E+02  0.84756504389E+02  0.00000000000E+00 0.  1.
         -3    1    1    2    0  502  0.17580769552E+02  0.32667478882E+02  0.13453976683E+02  0.39462097298E+02  0.00000000000E+00 0.  1.
<mgrwt>
<rscale>  2 0.37097812E+02</rscale>
<asrwt>0</asrwt>
<pdfrwt beam="2">  1       21 0.14382387E-01 0.37097812E+02</pdfrwt>
<pdfrwt beam="1">  1       -3 0.47281666E-02 0.37097812E+02</pdfrwt>
<totfact> 0.38764632E+05</totfact>
</mgrwt>
</event>
<event>
 4    1  0.2177230E+006  0.3387560E+02  0.7546771E-02  0.1558818E+00
         21   -1    0    0  503  502  0.00000000000E+00  0.00000000000E+00  0.28322026856E+01  0.28322026856E+01  0.00000000000E+00 0. -1.
         -3   -1    0    0    0  501 -0.00000000000E+00 -0.00000000000E+00 -0.60222184312E+03  0.60222184312E+03  0.00000000000E+00 0.  1.
         21    1    1    2  503  501  0.29262619112E+02 -0.17066204098E+02 -0.12664805986E+03  0.13110029469E+03  0.00000000000E+00 0. -1.
         -3    1    1    2    0  502 -0.29262619112E+02  0.17066204098E+02 -0.47274158057E+03  0.47395375112E+03  0.00000000000E+00 0.  1.
<mgrwt>
<rscale>  2 0.33875599E+02</rscale>
<asrwt>0</asrwt>
<pdfrwt beam="1">  1       21 0.43572288E-03 0.33875599E+02</pdfrwt>
<pdfrwt beam="2">  1       -3 0.92649643E-01 0.33875599E+02</pdfrwt>
<totfact> 0.52013256E+05</totfact>
</mgrwt>
</event>
<event>
 4    1  0.2177230E+006  0.2081013E+02  0.7546771E-02  0.1729682E+00
          2   -1    0    0  502    0 -0.00000000000E+00  0.00000000000E+00  0.92814117474E+03  0.92814117474E+03  0.00000000000E+00 0.  1.
         21   -1    0    0  503  502  0.00000000000E+00 -0.00000000000E+00 -0.19883341839E+01  0.19883341839E+01  0.00000000000E+00 0.  1.
         21    1    1    2  503  501 -0.20152058784E+02 -0.51919014943E+01  0.56221497949E+02  0.59949296459E+02  0.00000000000E+00 0.  1.
          2    1    1    2  501    0  0.20152058784E+02  0.51919014943E+01  0.86993134261E+03  0.87018021247E+03  0.00000000000E+00 0.  1.
<mgrwt>
<rscale>  2 0.20810125E+02</rscale>
<asrwt>0</asrwt>
<pdfrwt beam="2">  1       21 0.30589831E-03 0.20810125E+02</pdfrwt>
<pdfrwt beam="1">  1        2 0.14279060E+00 0.20810125E+02</pdfrwt>
<totfact> 0.62385410E+06</totfact>
</mgrwt>
</event>
<event>
 4    1  0.2177230E+006  0.3876794E+02  0.7546771E-02  0.1517479E+00
         21   -1    0    0  501  502  0.00000000000E+00  0.00000000000E+00  0.11595352478E+01  0.11595352478E+01  0.00000000000E+00 0.  1.
          2   -1    0    0  503    0 -0.00000000000E+00 -0.00000000000E+00 -0.20783590076E+04  0.20783590076E+04  0.00000000000E+00 0.  1.
         21    1    1    2  503  502 -0.69820339783E+01 -0.38134033866E+02 -0.40073481015E+03  0.40260568973E+03  0.00000000000E+00 0.  1.
          2    1    1    2  501    0  0.69820339783E+01  0.38134033866E+02 -0.16764646622E+04  0.16769128531E+04  0.00000000000E+00 0.  1.
<mgrwt>
<rscale>  2 0.38767942E+02</rscale>
<asrwt>0</asrwt>
<pdfrwt beam="1">  1       21 0.17839010E-03 0.38767942E+02</pdfrwt>
<pdfrwt beam="2">  1        2 0.31974742E+00 0.38767942E+02</pdfrwt>
<totfact> 0.41716490E+06</totfact>
</mgrwt>
</event>
<event>
 4    1  0.2177230E+006  0.2340262E+02  0.7546771E-02  0.1685066E+00
         21   -1    0    0  501  502  0.00000000000E+00  0.00000000000E+00  0.88840304781E+01  0.88840304781E+01  0.00000000000E+00 0. -1.
          1   -1    0    0  503    0 -0.00000000000E+00 -0.00000000000E+00 -0.95152958770E+03  0.95152958770E+03  0.00000000000E+00 0. -1.
         21    1    1    2  503  502  0.23278504455E+02  0.24070773656E+01 -0.69323355817E+01  0.24407787030E+02  0.00000000000E+00 0. -1.
          1    1    1    2  501    0 -0.23278504455E+02 -0.24070773656E+01 -0.93571322164E+03  0.93600583115E+03  0.00000000000E+00 0. -1.
<mgrwt>
<rscale>  2 0.23402624E+02</rscale>
<asrwt>0</asrwt>
<pdfrwt beam="1">  1       21 0.13667740E-02 0.23402624E+02</pdfrwt>
<pdfrwt beam="2">  1        1 0.14638915E+00 0.23402624E+02</pdfrwt>
<totfact> 0.37878383E+05</totfact>
</mgrwt>
</event>
<event>
 4    1  0.2177230E+006  0.3285164E+02  0.7546771E-02  0.1568550E+00
          3   -1    0    0  503    0 -0.00000000000E+00  0.00000000000E+00  0.35540983268E+01  0.35540983268E+01  0.00000000000E+00 0.  1.
         21   -1    0    0  501  502  0.00000000000E+00 -0.00000000000E+00 -0.35043144316E+03  0.35043144316E+03  0.00000000000E+00 0.  1.
         21    1    1    2  503  502  0.24407168985E+02 -0.21989091718E+02 -0.23810141274E+03  0.24035705274E+03  0.00000000000E+00 0.  1.
          3    1    1    2  501    0 -0.24407168985E+02  0.21989091718E+02 -0.10877593210E+03  0.11362848875E+03  0.00000000000E+00 0.  1.
<mgrwt>
<rscale>  2 0.32851637E+02</rscale>
<asrwt>0</asrwt>
<pdfrwt beam="2">  1       21 0.53912543E-01 0.32851637E+02</pdfrwt>
<pdfrwt beam="1">  1        3 0.54678423E-03 0.32851637E+02</pdfrwt>
<totfact> 0.77884007E+05</totfact>
</mgrwt>
</event>
<event>
 4    1  0.2177230E+006  0.2006489E+02  0.7546771E-02  0.1744041E+00
          3   -1    0    0  502    0 -0.00000000000E+00  0.00000000000E+00  0.10864838800E+03  0.10864838800E+03  0.00000000000E+00 0. -1.
         21   -1    0    0  503  502  0.00000000000E+00 -0.00000000000E+00 -0.11055301623E+02  0.11055301623E+02  0.00000000000E+00 0.  1.
         21    1    1    2  503  501 -0.20024449108E+02  0.12732286611E+01 -0.45124577167E-02  0.20064887084E+02  0.00000000000E+00 0.  1.
          3    1    1    2  501    0  0.20024449108E+02 -0.12732286611E+01  0.97597598837E+02  0.99638802542E+02  0.00000000000E+00 0. -1.
<mgrwt>
<rscale>  2 0.20064887E+02</rscale>
<asrwt>0</asrwt>
<pdfrwt beam="2">  1       21 0.17008157E-02 0.20064887E+02</pdfrwt>
<pdfrwt beam="1">  1        3 0.16715136E-01 0.20064887E+02</pdfrwt>
<totfact> 0.13576204E+06</totfact>
</mgrwt>
</event>
<event>
 4    1  0.2177230E+006  0.2198931E+02  0.7546771E-02  0.1708437E+00
          2   -1    0    0  503    0 -0.00000000000E+00  0.00000000000E+00  0.92277632851E+02  0.92277632851E+02  0.00000000000E+00 0.  1.
         21   -1    0    0  501  502  0.00000000000E+00 -0.00000000000E+00 -0.53005061825E+01  0.53005061825E+01  0.00000000000E+00 0.  1.
         21    1    1    2  503  502  0.10188990324E+01 -0.21965686844E+02  0.38273404622E+02  0.44140492239E+02  0.00000000000E+00 0.  1.
          2    1    1    2  501    0 -0.10188990324E+01  0.21965686844E+02  0.48703722046E+02  0.53437646794E+02  0.00000000000E+00 0.  1.
<mgrwt>
<rscale>  2 0.21989305E+02</rscale>
<asrwt>0</asrwt>
<pdfrwt beam="2">  1       21 0.81546256E-03 0.21989305E+02</pdfrwt>
<pdfrwt beam="1">  1        2 0.14196558E-01 0.21989305E+02</pdfrwt>
<totfact> 0.16305530E+07</totfact>
</mgrwt>
</event>
<event>
 4    1  0.2177230E+006  0.3044383E+02  0.7546771E-02  0.1593234E+00
          3   -1    0    0  503    0 -0.00000000000E+00  0.00000000000E+00  0.10441523418E+03  0.10441523418E+03  0.00000000000E+00 0.  1.
         21   -1    0    0  501  502  0.00000000000E+00 -0.00000000000E+00 -0.12449848401E+02  0.12449848401E+02  0.00000000000E+00 0.  1.
         21    1    1    2  503  502 -0.10889478877E+02  0.28429672372E+02  0.14677308546E+02  0.33797195262E+02  0.00000000000E+00 0.  1.
          3    1    1    2  501    0  0.10889478877E+02 -0.28429672372E+02  0.77288077234E+02  0.83067887321E+02  0.00000000000E+00 0.  1.
<mgrwt>
<rscale>  2 0.30443834E+02</rscale>
<asrwt>0</asrwt>
<pdfrwt beam="2">  1       21 0.19153614E-02 0.30443834E+02</pdfrwt>
<pdfrwt beam="1">  1        3 0.16063882E-01 0.30443834E+02</pdfrwt>
<totfact> 0.14027170E+06</totfact>
</mgrwt>
</event>
<event>
 4    1  0.2177230E+006  0.2073390E+02  0.7546771E-02  0.1731115E+00
          2   -1    0    0  503    0 -0.00000000000E+00  0.00000000000E+00  0.39491358451E+01  0.39491358451E+01  0.00000000000E+00 0. -1.
         21   -1    0    0  501  502  0.00000000000E+00 -0.00000000000E+00 -0.25745212830E+03  0.25745212830E+03  0.00000000000E+00 0.  1.
         21    1    1    2  503  502  0.19249706987E+02 -0.77034752137E+01 -0.22604718043E+03  0.22699608484E+03  0.00000000000E+00 0.  1.
          2    1    1    2  501    0 -0.19249706987E+02  0.77034752137E+01 -0.27455812021E+02  0.34405179307E+02  0.00000000000E+00 0. -1.
<mgrwt>
<rscale>  2 0.20733903E+02</rscale>
<asrwt>0</asrwt>
<pdfrwt beam="2">  1       21 0.39608027E-01 0.20733903E+02</pdfrwt>
<pdfrwt beam="1">  1        2 0.60755925E-03 0.20733903E+02</pdfrwt>
<totfact> 0.14548737E+06</totfact>
</mgrwt>
</event>
<event>
 4    1  0.2177230E+006  0.2474666E+02  0.7546771E-02  0.1664668E+00
         -1   -1    0    0    0  501 -0.00000000000E+00  0.00000000000E+00  0.97343355262E+03  0.97343355262E+03  0.00000000000E+00 0. -1.
         21   -1    0    0  503  502  0.00000000000E+00 -0.00000000000E+00 -0.40213947362E+02  0.40213947362E+02  0.00000000000E+00 0.  1.
         21    1    1    2  503  501  0.24684792724E+02  0.17487879900E+01 -0.36233922680E+02  0.43878176854E+02  0.00000000000E+00 0.  1.
         -1    1    1    2    0  502 -0.24684792724E+02 -0.17487879900E+01  0.96945352794E+03  0.96976932313E+03  0.00000000000E+00 0. -1.
<mgrwt>
<rscale>  2 0.24746661E+02</rscale>
<asrwt>0</asrwt>
<pdfrwt beam="2">  1       21 0.61867619E-02 0.24746661E+02</pdfrwt>
<pdfrwt beam="1">  1       -1 0.14975899E+00 0.24746661E+02</pdfrwt>
<totfact> 0.66962752E+03</totfact>
</mgrwt>
</event>
<event>
 4    1  0.2177230E+006  0.2781601E+02  0.7546771E-02  0.1623565E+00
          1   -1    0    0  502    0 -0.00000000000E+00  0.00000000000E+00  0.19984986335E+03  0.19984986335E+03  0.00000000000E+00 0. -1.
         21   -1    0    0  503  502  0.00000000000E+00 -0.00000000000E+00 -0.14279571263E+02  0.14279571263E+02  0.00000000000E+00 0. -1.
         21    1    1    2  503  501 -0.27805116536E+02 -0.77853204617E+00  0.13795721466E+01  0.27850203537E+02  0.00000000000E+00 0. -1.
          1    1    1    2  501    0  0.27805116536E+02  0.77853204617E+00  0.18419071994E+03  0.18627923107E+03  0.00000000000E+00 0. -1.
<mgrwt>
<rscale>  2 0.27816014E+02</rscale>
<asrwt>0</asrwt>
<pdfrwt beam="2">  1       21 0.21968573E-02 0.27816014E+02</pdfrwt>
<pdfrwt beam="1">  1        1 0.30746131E-01 0.27816014E+02</pdfrwt>
<totfact> 0.12966908E+06</totfact>
</mgrwt>
</event>
<event>
 4    1  0.2177230E+006  0.2405359E+02  0.7546771E-02  0.1674980E+00
          2   -1    0    0  503    0 -0.00000000000E+00  0.00000000000E+00  0.18513271913E+01  0.18513271913E+01  0.00000000000E+00 0. -1.
         21   -1    0    0  501  502  0.00000000000E+00 -0.00000000000E+00 -0.31252253003E+03  0.31252253003E+03  0.00000000000E+00 0. -1.
         21    1    1    2  503  502  0.63699225627E+00 -0.24045150357E+02 -0.15481106493E+03  0.15666857004E+03  0.00000000000E+00 0. -1.
          2    1    1    2  501    0 -0.63699225627E+00  0.24045150357E+02 -0.15586013791E+03  0.15770528718E+03  0.00000000000E+00 0. -1.
<mgrwt>
<rscale>  2 0.24053586E+02</rscale>
<asrwt>0</asrwt>
<pdfrwt beam="2">  1       21 0.48080389E-01 0.24053586E+02</pdfrwt>
<pdfrwt beam="1">  1        2 0.28481957E-03 0.24053586E+02</pdfrwt>
<totfact> 0.28196829E+06</totfact>
</mgrwt>
</event>
<event>
 4    1  0.2177230E+006  0.3319756E+02  0.7546771E-02  0.1565215E+00
         -2   -1    0    0    0  501 -0.00000000000E+00  0.00000000000E+00  0.91405638454E+02  0.91405638454E+02  0.00000000000E+00 0. -1.
         21   -1    0    0  503  502  0.00000000000E+00 -0.00000000000E+00 -0.12933639233E+03  0.12933639233E+03  0.00000000000E+00 0.  1.
         21    1    1    2  503  501 -0.13123422976E+02  0.30493504366E+02 -0.12406605429E+03  0.12843077461E+03  0.00000000000E+00 0.  1.
         -2    1    1    2    0  502  0.13123422976E+02 -0.30493504366E+02  0.86135300415E+02  0.92311256176E+02  0.00000000000E+00 0. -1.
<mgrwt>
<rscale>  2 0.33197561E+02</rscale>
<asrwt>0</asrwt>
<pdfrwt beam="2">  1       21 0.19897906E-01 0.33197561E+02</pdfrwt>
<pdfrwt beam="1">  1       -2 0.14062406E-01 0.33197561E+02</pdfrwt>
<totfact> 0.62997772E+04</totfact>
</mgrwt>
</event>
<event>
 4    1  0.2177230E+006  0.2627343E+02  0.7546771E-02  0.1643357E+00
          4   -1    0    0  503    0 -0.00000000000E+00  0.00000000000E+00  0.16024541687E+03  0.16024541687E+03  0.00000000000E+00 0.  1.
         21   -1    0    0  501  502  0.00000000000E+00 -0.00000000000E+00 -0.11215301661E+02  0.11215301661E+02  0.00000000000E+00 0.  1.
         21    1    1    2  503  502  0.15355909252E+02 -0.21318748745E+02  0.72341163974E+01  0.27251154784E+02  0.00000000000E+00 0.  1.
          4    1    1    2  501    0 -0.15355909252E+02  0.21318748745E+02  0.14179599881E+03  0.14420956375E+03  0.00000000000E+00 0.  1.
<mgrwt>
<rscale>  2 0.26273428E+02</rscale>
<asrwt>0</asrwt>
<pdfrwt beam="2">  1       21 0.17254311E-02 0.26273428E+02</pdfrwt>
<pdfrwt beam="1">  1        4 0.24653139E-01 0.26273428E+02</pdfrwt>
<totfact> 0.60806479E+05</totfact>
</mgrwt>
</event>
<event>
 4    1  0.2177230E+006  0.2406905E+02  0.7546771E-02  0.1674745E+00
          1   -1    0    0  502    0 -0.00000000000E+00  0.00000000000E+00  0.10586644595E+04  0.10586644595E+04  0.00000000000E+00 0. -1.
         21   -1    0    0  503  502  0.00000000000E+00 -0.00000000000E+00 -0.45644651135E+01  0.45644651135E+01  0.00000000000E+00 0. -1.
         21    1    1    2  503  501  0.24043750071E+02 -0.11033126464E+01  0.28319222618E+02  0.37165812058E+02  0.00000000000E+00 0. -1.
          1    1    1    2  501    0 -0.24043750071E+02  0.11033126464E+01  0.10257807718E+04  0.10260631125E+04  0.00000000000E+00 0. -1.
<mgrwt>
<rscale>  2 0.24069051E+02</rscale>
<asrwt>0</asrwt>
<pdfrwt beam="2">  1       21 0.70222624E-03 0.24069051E+02</pdfrwt>
<pdfrwt beam="1">  1        1 0.16287126E+00 0.24069051E+02</pdfrwt>
<totfact> 0.87672663E+05</totfact>
</mgrwt>
</event>
<event>
 4    1  0.2177230E+006  0.2018358E+02  0.7546771E-02  0.1741702E+00
          1   -1    0    0  502    0 -0.00000000000E+00  0.00000000000E+00  0.29392214647E+03  0.29392214647E+03  0.00000000000E+00 0. -1.
         21   -1    0    0  503  502  0.00000000000E+00 -0.00000000000E+00 -0.20575409406E+02  0.20575409406E+02  0.00000000000E+00 0.  1.
         21    1    1    2  503  501  0.15398388745E+02  0.13048622520E+02 -0.15186775900E+02  0.25258960546E+02  0.00000000000E+00 0.  1.
          1    1    1    2  501    0 -0.15398388745E+02 -0.13048622520E+02  0.28853351296E+03  0.28923859533E+03  0.00000000000E+00 0. -1.
<mgrwt>
<rscale>  2 0.20183581E+02</rscale>
<asrwt>0</asrwt>
<pdfrwt beam="2">  1       21 0.31654478E-02 0.20183581E+02</pdfrwt>
<pdfrwt beam="1">  1        1 0.45218789E-01 0.20183581E+02</pdfrwt>
<totfact> 0.44316172E+05</totfact>
</mgrwt>
</event>
<event>
 4    1  0.2177230E+006  0.2352716E+02  0.7546771E-02  0.1683105E+00
         -1   -1    0    0    0  501 -0.00000000000E+00  0.00000000000E+00  0.30173862151E+02  0.30173862151E+02  0.00000000000E+00 0.  1.
         21   -1    0    0  501  502  0.00000000000E+00 -0.00000000000E+00 -0.44628261402E+02  0.44628261402E+02  0.00000000000E+00 0. -1.
         21    1    1    2  503  502 -0.21465694488E+02 -0.96307480456E+01 -0.35929843480E+02  0.42947421346E+02  0.00000000000E+00 0. -1.
         -1    1    1    2    0  503  0.21465694488E+02  0.96307480456E+01  0.21475444230E+02  0.31854702206E+02  0.00000000000E+00 0.  1.
<mgrwt>
<rscale>  2 0.23527162E+02</rscale>
<asrwt>0</asrwt>
<pdfrwt beam="2">  1       21 0.68658863E-02 0.23527162E+02</pdfrwt>
<pdfrwt beam="1">  1       -1 0.46421327E-02 0.23527162E+02</pdfrwt>
<totfact> 0.18842257E+06</totfact>
</mgrwt>
</event>
<event>
 4    1  0.2177230E+006  0.3127087E+02  0.7546771E-02  0.1584451E+00
          4   -1    0    0  503    0 -0.00000000000E+00  0.00000000000E+00  0.91694973174E+03  0.91694973174E+03  0.00000000000E+00 0.  1.
         21   -1    0    0  501  502  0.00000000000E+00 -0.00000000000E+00 -0.12922733299E+01  0.12922733299E+01  0.00000000000E+00 0.  1.
         21    1    1    2  503  502 -0.23876599302E+02 -0.20193454235E+02  0.26589624675E+03  0.26772874636E+03  0.00000000000E+00 0.  1.
          4    1    1    2  501    0  0.23876599302E+02  0.20193454235E+02  0.64976121166E+03  0.65051325871E+03  0.00000000000E+00 0.  1.
<mgrwt>
<rscale>  2 0.31270874E+02</rscale>
<asrwt>0</asrwt>
<pdfrwt beam="2">  1       21 0.19881201E-03 0.31270874E+02</pdfrwt>
<pdfrwt beam="1">  1        4 0.14106867E+00 0.31270874E+02</pdfrwt>
<totfact> 0.47229970E+05</totfact>
</mgrwt>
</event>
<event>
 4    1  0.2177230E+006  0.6253897E+02  0.7546771E-02  0.1387475E+00
         21   -1    0    0  503  502  0.00000000000E+00  0.00000000000E+00  0.85829846455E+02  0.85829846455E+02  0.00000000000E+00 0. -1.
          2   -1    0    0  502    0 -0.00000000000E+00 -0.00000000000E+00 -0.34382998793E+03  0.34382998793E+03  0.00000000000E+00 0.  1.
         21    1    1    2  503  501 -0.68618134595E+01  0.62161393456E+02  0.71088183097E+02  0.94681851990E+02  0.00000000000E+00 0. -1.
          2    1    1    2  501    0  0.68618134595E+01 -0.62161393456E+02 -0.32908832457E+03  0.33497798240E+03  0.00000000000E+00 0.  1.
<mgrwt>
<rscale>  2 0.62538974E+02</rscale>
<asrwt>0</asrwt>
<pdfrwt beam="1">  1       21 0.13204592E-01 0.62538974E+02</pdfrwt>
<pdfrwt beam="2">  1        2 0.52896921E-01 0.62538974E+02</pdfrwt>
<totfact> 0.56684512E+04</totfact>
</mgrwt>
</event>
<event>
 4    1  0.2177230E+006  0.2492079E+02  0.7546771E-02  0.1662142E+00
         21   -1    0    0  501  502  0.00000000000E+00  0.00000000000E+00  0.44166211916E+00  0.44166211916E+00  0.00000000000E+00 0. -1.
          2   -1    0    0  503    0 -0.00000000000E+00 -0.00000000000E+00 -0.14658380721E+04  0.14658380721E+04  0.00000000000E+00 0. -1.
         21    1    1    2  503  502  0.81378148641E+01 -0.23554655231E+02 -0.58476488959E+03  0.58529567050E+03  0.00000000000E+00 0. -1.
          2    1    1    2  501    0 -0.81378148641E+01  0.23554655231E+02 -0.88063152044E+03  0.88098406376E+03  0.00000000000E+00 0. -1.
<mgrwt>
<rscale>  2 0.24920791E+02</rscale>
<asrwt>0</asrwt>
<pdfrwt beam="1">  1       21 0.67949246E-04 0.24920791E+02</pdfrwt>
<pdfrwt beam="2">  1        2 0.22550947E+00 0.24920791E+02</pdfrwt>
<totfact> 0.30134233E+07</totfact>
</mgrwt>
</event>
<event>
 4    1  0.2177230E+006  0.3097352E+02  0.7546771E-02  0.1587570E+00
          1   -1    0    0  502    0 -0.00000000000E+00  0.00000000000E+00  0.13979282867E+04  0.13979282867E+04  0.00000000000E+00 0. -1.
         21   -1    0    0  503  502  0.00000000000E+00 -0.00000000000E+00 -0.50104631914E+01  0.50104631914E+01  0.00000000000E+00 0.  1.
         21    1    1    2  503  501 -0.17129825893E+02 -0.25805576500E+02  0.44797158069E+02  0.54462318025E+02  0.00000000000E+00 0.  1.
          1    1    1    2  501    0  0.17129825893E+02  0.25805576500E+02  0.13481206654E+04  0.13484764319E+04  0.00000000000E+00 0. -1.
<mgrwt>
<rscale>  2 0.30973516E+02</rscale>
<asrwt>0</asrwt>
<pdfrwt beam="2">  1       21 0.77084161E-03 0.30973516E+02</pdfrwt>
<pdfrwt beam="1">  1        1 0.21506558E+00 0.30973516E+02</pdfrwt>
<totfact> 0.48084638E+05</totfact>
</mgrwt>
</event>
<event>
 4    1  0.2177230E+006  0.2299885E+02  0.7546771E-02  0.1691529E+00
         21   -1    0    0  501  502  0.00000000000E+00  0.00000000000E+00  0.19283619040E+02  0.19283619040E+02  0.00000000000E+00 0.  1.
         -1   -1    0    0    0  501 -0.00000000000E+00 -0.00000000000E+00 -0.39206181268E+02  0.39206181268E+02  0.00000000000E+00 0. -1.
         21    1    1    2  503  502 -0.10726542394E+02  0.20344244146E+02  0.60666579695E+01  0.23785527543E+02  0.00000000000E+00 0.  1.
         -1    1    1    2    0  503  0.10726542394E+02 -0.20344244146E+02 -0.25989220198E+02  0.34704272765E+02  0.00000000000E+00 0. -1.
<mgrwt>
<rscale>  2 0.22998847E+02</rscale>
<asrwt>0</asrwt>
<pdfrwt beam="1">  1       21 0.29667106E-02 0.22998847E+02</pdfrwt>
<pdfrwt beam="2">  1       -1 0.60317202E-02 0.22998847E+02</pdfrwt>
<totfact> 0.49095248E+06</totfact>
</mgrwt>
</event>
<event>
 4    1  0.2177230E+006  0.2334774E+02  0.7546771E-02  0.1685935E+00
          1   -1    0    0  503    0 -0.00000000000E+00  0.00000000000E+00  0.10734226607E+04  0.10734226607E+04  0.00000000000E+00 0.  1.
         21   -1    0    0  501  502  0.00000000000E+00 -0.00000000000E+00 -0.67779680169E+00  0.67779680169E+00  0.00000000000E+00 0.  1.
         21    1    1    2  503  502  0.21595972703E+01 -0.23247646413E+02  0.26743802222E+03  0.26845523398E+03  0.00000000000E+00 0.  1.
          1    1    1    2  501    0 -0.21595972703E+01  0.23247646413E+02  0.80530684173E+03  0.80564522357E+03  0.00000000000E+00 0.  1.
<mgrwt>
<rscale>  2 0.23347739E+02</rscale>
<asrwt>0</asrwt>
<pdfrwt beam="2">  1       21 0.10427729E-03 0.23347739E+02</pdfrwt>
<pdfrwt beam="1">  1        1 0.16514059E+00 0.23347739E+02</pdfrwt>
<totfact> 0.13688407E+07</totfact>
</mgrwt>
</event>
<event>
 4    1  0.2177230E+006  0.2222768E+02  0.7546771E-02  0.1704344E+00
          3   -1    0    0  503    0 -0.00000000000E+00  0.00000000000E+00  0.29152610923E+02  0.29152610923E+02  0.00000000000E+00 0. -1.
         21   -1    0    0  501  502  0.00000000000E+00 -0.00000000000E+00 -0.18026985289E+02  0.18026985289E+02  0.00000000000E+00 0.  1.
         21    1    1    2  503  502 -0.20239110225E+02  0.91895751361E+01 -0.20923113052E+00  0.22228667336E+02  0.00000000000E+00 0.  1.
          3    1    1    2  501    0  0.20239110225E+02 -0.91895751361E+01  0.11334856765E+02  0.24950928876E+02  0.00000000000E+00 0. -1.
<mgrwt>
<rscale>  2 0.22227683E+02</rscale>
<asrwt>0</asrwt>
<pdfrwt beam="2">  1       21 0.27733823E-02 0.22227683E+02</pdfrwt>
<pdfrwt beam="1">  1        3 0.44850171E-02 0.22227683E+02</pdfrwt>
<totfact> 0.51779803E+06</totfact>
</mgrwt>
</event>
<event>
 4    1  0.2177230E+006  0.2236852E+02  0.7546771E-02  0.1701955E+00
         21   -1    0    0  501  502  0.00000000000E+00  0.00000000000E+00  0.15650127354E+01  0.15650127354E+01  0.00000000000E+00 0. -1.
          4   -1    0    0  503    0 -0.00000000000E+00 -0.00000000000E+00 -0.44984306232E+03  0.44984306232E+03  0.00000000000E+00 0. -1.
         21    1    1    2  503  502  0.20990811119E+02  0.77289420004E+01 -0.10274365180E+03  0.10515040980E+03  0.00000000000E+00 0. -1.
          4    1    1    2  501    0 -0.20990811119E+02 -0.77289420004E+01 -0.34553439778E+03  0.34625766525E+03  0.00000000000E+00 0. -1.
<mgrwt>
<rscale>  2 0.22368520E+02</rscale>
<asrwt>0</asrwt>
<pdfrwt beam="1">  1       21 0.24077087E-03 0.22368520E+02</pdfrwt>
<pdfrwt beam="2">  1        4 0.69206717E-01 0.22368520E+02</pdfrwt>
<totfact> 0.15038643E+06</totfact>
</mgrwt>
</event>
<event>
 4    1  0.2177230E+006  0.2021334E+02  0.7546771E-02  0.1741118E+00
         21   -1    0    0  503  502  0.00000000000E+00  0.00000000000E+00  0.15571659336E+02  0.15571659336E+02  0.00000000000E+00 0.  1.
          2   -1    0    0  502    0 -0.00000000000E+00 -0.00000000000E+00 -0.88602706926E+03  0.88602706926E+03  0.00000000000E+00 0. -1.
         21    1    1    2  503  501  0.64629174788E+01  0.19152283408E+02  0.88465504596E+01  0.22064467298E+02  0.00000000000E+00 0.  1.
          2    1    1    2  501    0 -0.64629174788E+01 -0.19152283408E+02 -0.87930196038E+03  0.87953426130E+03  0.00000000000E+00 0. -1.
<mgrwt>
<rscale>  2 0.20213344E+02</rscale>
<asrwt>0</asrwt>
<pdfrwt beam="1">  1       21 0.23956400E-02 0.20213344E+02</pdfrwt>
<pdfrwt beam="2">  1        2 0.13631185E+00 0.20213344E+02</pdfrwt>
<totfact> 0.30460408E+05</totfact>
</mgrwt>
</event>
<event>
 4    1  0.2177230E+006  0.2821491E+02  0.7546771E-02  0.1618702E+00
         21   -1    0    0  501  502  0.00000000000E+00  0.00000000000E+00  0.13520451139E+02  0.13520451139E+02  0.00000000000E+00 0. -1.
          1   -1    0    0  503    0 -0.00000000000E+00 -0.00000000000E+00 -0.12461385773E+03  0.12461385773E+03  0.00000000000E+00 0. -1.
         21    1    1    2  503  502 -0.52733417303E+01  0.27717742727E+02 -0.53836885098E+01  0.28723953364E+02  0.00000000000E+00 0. -1.
          1    1    1    2  501    0  0.52733417303E+01 -0.27717742727E+02 -0.10570971808E+03  0.10941035551E+03  0.00000000000E+00 0. -1.
<mgrwt>
<rscale>  2 0.28214914E+02</rscale>
<asrwt>0</asrwt>
<pdfrwt beam="1">  1       21 0.20800694E-02 0.28214914E+02</pdfrwt>
<pdfrwt beam="2">  1        1 0.19171363E-01 0.28214914E+02</pdfrwt>
<totfact> 0.24804905E+06</totfact>
</mgrwt>
</event>
<event>
 4    1  0.2177230E+006  0.3792688E+02  0.7546771E-02  0.1524046E+00
          1   -1    0    0  502    0 -0.00000000000E+00  0.00000000000E+00  0.85801985111E+03  0.85801985111E+03  0.00000000000E+00 0.  1.
         21   -1    0    0  503  502  0.00000000000E+00 -0.00000000000E+00 -0.40115741497E+02  0.40115741497E+02  0.00000000000E+00 0. -1.
         21    1    1    2  503  501 -0.25148061830E+02  0.28390541465E+02 -0.30632122936E+02  0.48752177532E+02  0.00000000000E+00 0. -1.
          1    1    1    2  501    0  0.25148061830E+02 -0.28390541465E+02  0.84853623254E+03  0.84938341507E+03  0.00000000000E+00 0.  1.
<mgrwt>
<rscale>  2 0.37926875E+02</rscale>
<asrwt>0</asrwt>
<pdfrwt beam="2">  1       21 0.61716532E-02 0.37926875E+02</pdfrwt>
<pdfrwt beam="1">  1        1 0.13200304E+00 0.37926875E+02</pdfrwt>
<totfact> 0.42938859E+04</totfact>
</mgrwt>
</event>
<event>
 4    1  0.2177230E+006  0.2715244E+02  0.7546771E-02  0.1631881E+00
         21   -1    0    0  503  502  0.00000000000E+00  0.00000000000E+00  0.21033238243E+02  0.21033238243E+02  0.00000000000E+00 0.  1.
          1   -1    0    0  502    0 -0.00000000000E+00 -0.00000000000E+00 -0.11896025572E+03  0.11896025572E+03  0.00000000000E+00 0.  1.
         21    1    1    2  503  501 -0.23857827576E+02  0.12963750601E+02  0.98232535986E+01  0.28874748095E+02  0.00000000000E+00 0.  1.
          1    1    1    2  501    0  0.23857827576E+02 -0.12963750601E+02 -0.10775027107E+03  0.11111874587E+03  0.00000000000E+00 0.  1.
<mgrwt>
<rscale>  2 0.27152436E+02</rscale>
<asrwt>0</asrwt>
<pdfrwt beam="1">  1       21 0.32358828E-02 0.27152436E+02</pdfrwt>
<pdfrwt beam="2">  1        1 0.18301578E-01 0.27152436E+02</pdfrwt>
<totfact> 0.13061219E+06</totfact>
</mgrwt>
</event>
<event>
 4    1  0.2177230E+006  0.2691244E+02  0.7546771E-02  0.1634961E+00
         -2   -1    0    0    0  501 -0.00000000000E+00  0.00000000000E+00  0.22583011551E+02  0.22583011551E+02  0.00000000000E+00 0. -1.
         21   -1    0    0  501  502  0.00000000000E+00 -0.00000000000E+00 -0.24536938728E+03  0.24536938728E+03  0.00000000000E+00 0. -1.
         21    1    1    2  503  502  0.80282032774E+01 -0.25687107487E+02 -0.23630697024E+03  0.23783453013E+03  0.00000000000E+00 0. -1.
         -2    1    1    2    0  503 -0.80282032774E+01  0.25687107487E+02  0.13520594514E+02  0.30117868698E+02  0.00000000000E+00 0. -1.
<mgrwt>
<rscale>  2 0.26912442E+02</rscale>
<asrwt>0</asrwt>
<pdfrwt beam="2">  1       21 0.37749135E-01 0.26912442E+02</pdfrwt>
<pdfrwt beam="1">  1       -2 0.34743096E-02 0.26912442E+02</pdfrwt>
<totfact> 0.14930510E+05</totfact>
</mgrwt>
</event>
<event>
 4    1  0.2177230E+006  0.2191891E+02  0.7546771E-02  0.1709658E+00
         21   -1    0    0  503  502  0.00000000000E+00  0.00000000000E+00  0.13224408507E+02  0.13224408507E+02  0.00000000000E+00 0.  1.
          1   -1    0    0  502    0 -0.00000000000E+00 -0.00000000000E+00 -0.10002854338E+04  0.10002854338E+04  0.00000000000E+00 0.  1.
         21    1    1    2  503  501 -0.14976382379E+01 -0.21867689146E+02  0.39367990740E+01  0.22269646064E+02  0.00000000000E+00 0.  1.
          1    1    1    2  501    0  0.14976382379E+01  0.21867689146E+02 -0.99099782441E+03  0.99124019628E+03  0.00000000000E+00 0.  1.
<mgrwt>
<rscale>  2 0.21918913E+02</rscale>
<asrwt>0</asrwt>
<pdfrwt beam="1">  1       21 0.20345245E-02 0.21918913E+02</pdfrwt>
<pdfrwt beam="2">  1        1 0.15389006E+00 0.21918913E+02</pdfrwt>
<totfact> 0.18982671E+05</totfact>
</mgrwt>
</event>
<event>
 4    1  0.2177230E+006  0.2111777E+02  0.7546771E-02  0.1723972E+00
          1   -1    0    0  503    0 -0.00000000000E+00  0.00000000000E+00  0.21614108002E+04  0.21614108002E+04  0.00000000000E+00 0. -1.
         21   -1    0    0  501  502  0.00000000000E+00 -0.00000000000E+00 -0.25724435901E+00  0.25724435901E+00  0.00000000000E+00 0.  1.
         21    1    1    2  503  502 -0.13594333315E+01 -0.21073971820E+02  0.59972280520E+03  0.60009449541E+03  0.00000000000E+00 0.  1.
          1    1    1    2  501    0  0.13594333315E+01  0.21073971820E+02  0.15614307506E+04  0.15615735491E+04  0.00000000000E+00 0. -1.
<mgrwt>
<rscale>  2 0.21117773E+02</rscale>
<asrwt>0</asrwt>
<pdfrwt beam="2">  1       21 0.39577786E-04 0.21117773E+02</pdfrwt>
<pdfrwt beam="1">  1        1 0.33251020E+00 0.21117773E+02</pdfrwt>
<totfact> 0.11639016E+07</totfact>
</mgrwt>
</event>
<event>
 4    1  0.2177230E+006  0.2159486E+02  0.7546771E-02  0.1715354E+00
         21   -1    0    0  501  502  0.00000000000E+00  0.00000000000E+00  0.11998695063E+01  0.11998695063E+01  0.00000000000E+00 0.  1.
          2   -1    0    0  503    0 -0.00000000000E+00 -0.00000000000E+00 -0.16039357325E+04  0.16039357325E+04  0.00000000000E+00 0.  1.
         21    1    1    2  503  502 -0.19926426254E+02  0.83232038167E+01 -0.10277188331E+03  0.10501618058E+03  0.00000000000E+00 0.  1.
          2    1    1    2  501    0  0.19926426254E+02 -0.83232038167E+01 -0.14999639796E+04  0.15001194214E+04  0.00000000000E+00 0.  1.
<mgrwt>
<rscale>  2 0.21594865E+02</rscale>
<asrwt>0</asrwt>
<pdfrwt beam="1">  1       21 0.18459600E-03 0.21594865E+02</pdfrwt>
<pdfrwt beam="2">  1        2 0.24675842E+00 0.21594865E+02</pdfrwt>
<totfact> 0.60269263E+06</totfact>
</mgrwt>
</event>
<event>
 4    1  0.2177230E+006  0.2971466E+02  0.7546771E-02  0.1601264E+00
         21   -1    0    0  503  502  0.00000000000E+00  0.00000000000E+00  0.73769805175E+01  0.73769805175E+01  0.00000000000E+00 0.  1.
          2   -1    0    0  502    0 -0.00000000000E+00 -0.00000000000E+00 -0.22087782740E+04  0.22087782740E+04  0.00000000000E+00 0. -1.
         21    1    1    2  503  501 -0.28257380139E+02 -0.91913650145E+01 -0.23063927060E+02  0.37615229024E+02  0.00000000000E+00 0.  1.
          2    1    1    2  501    0  0.28257380139E+02  0.91913650145E+01 -0.21783373664E+04  0.21785400255E+04  0.00000000000E+00 0. -1.
<mgrwt>
<rscale>  2 0.29714655E+02</rscale>
<asrwt>0</asrwt>
<pdfrwt beam="1">  1       21 0.11349177E-02 0.29714655E+02</pdfrwt>
<pdfrwt beam="2">  1        2 0.33981277E+00 0.29714655E+02</pdfrwt>
<totfact> 0.22351548E+05</totfact>
</mgrwt>
</event>
<event>
 4    1  0.2177230E+006  0.2683539E+02  0.7546771E-02  0.1635958E+00
         21   -1    0    0  501  502  0.00000000000E+00  0.00000000000E+00  0.83140558341E+01  0.83140558341E+01  0.00000000000E+00 0. -1.
         -1   -1    0    0    0  501 -0.00000000000E+00 -0.00000000000E+00 -0.10066958519E+04  0.10066958519E+04  0.00000000000E+00 0. -1.
         21    1    1    2  503  502 -0.17485258054E+02 -0.20356908451E+02 -0.14010007062E+02  0.30272401107E+02  0.00000000000E+00 0. -1.
         -1    1    1    2    0  503  0.17485258054E+02  0.20356908451E+02 -0.98437178904E+03  0.98473750666E+03  0.00000000000E+00 0. -1.
<mgrwt>
<rscale>  2 0.26835387E+02</rscale>
<asrwt>0</asrwt>
<pdfrwt beam="1">  1       21 0.12790855E-02 0.26835387E+02</pdfrwt>
<pdfrwt beam="2">  1       -1 0.15487628E+00 0.26835387E+02</pdfrwt>
<totfact> 0.72779158E+04</totfact>
</mgrwt>
</event>
<event>
 4    1  0.2177230E+006  0.2389419E+02  0.7546771E-02  0.1677412E+00
         21   -1    0    0  501  502  0.00000000000E+00  0.00000000000E+00  0.85667962343E+00  0.85667962343E+00  0.00000000000E+00 0. -1.
          1   -1    0    0  503    0 -0.00000000000E+00 -0.00000000000E+00 -0.68232730674E+03  0.68232730674E+03  0.00000000000E+00 0. -1.
         21    1    1    2  503  502 -0.11093507209E+02  0.21162859325E+02 -0.28862477595E+03  0.28961214376E+03  0.00000000000E+00 0. -1.
          1    1    1    2  501    0  0.11093507209E+02 -0.21162859325E+02 -0.39284585116E+03  0.39357184261E+03  0.00000000000E+00 0. -1.
<mgrwt>
<rscale>  2 0.23894194E+02</rscale>
<asrwt>0</asrwt>
<pdfrwt beam="1">  1       21 0.13179692E-03 0.23894194E+02</pdfrwt>
<pdfrwt beam="2">  1        1 0.10497338E+00 0.23894194E+02</pdfrwt>
<totfact> 0.18919818E+07</totfact>
</mgrwt>
</event>
<event>
 4    1  0.2177230E+006  0.2645886E+02  0.7546771E-02  0.1640891E+00
          1   -1    0    0  503    0 -0.00000000000E+00  0.00000000000E+00  0.41379918982E+03  0.41379918982E+03  0.00000000000E+00 0. -1.
         21   -1    0    0  501  502  0.00000000000E+00 -0.00000000000E+00 -0.16938751688E+01  0.16938751688E+01  0.00000000000E+00 0. -1.
         21    1    1    2  503  502  0.24573864862E+02  0.98079849626E+01  0.21329891924E+03  0.21493371153E+03  0.00000000000E+00 0. -1.
          1    1    1    2  501    0 -0.24573864862E+02 -0.98079849626E+01  0.19880639541E+03  0.20055935346E+03  0.00000000000E+00 0. -1.
<mgrwt>
<rscale>  2 0.26458862E+02</rscale>
<asrwt>0</asrwt>
<pdfrwt beam="2">  1       21 0.26059651E-03 0.26458862E+02</pdfrwt>
<pdfrwt beam="1">  1        1 0.63661333E-01 0.26458862E+02</pdfrwt>
<totfact> 0.13439516E+07</totfact>
</mgrwt>
</event>
<event>
 4    1  0.2177230E+006  0.2264746E+02  0.7546771E-02  0.1697289E+00
         21   -1    0    0  501  502  0.00000000000E+00  0.00000000000E+00  0.75724739928E+01  0.75724739928E+01  0.00000000000E+00 0.  1.
          1   -1    0    0  503    0 -0.00000000000E+00 -0.00000000000E+00 -0.91738887231E+03  0.91738887231E+03  0.00000000000E+00 0.  1.
         21    1    1    2  503  502  0.21497027580E+02  0.71263740490E+01 -0.98279200372E+01  0.24687960914E+02  0.00000000000E+00 0.  1.
          1    1    1    2  501    0 -0.21497027580E+02 -0.71263740490E+01 -0.89998847828E+03  0.90027338538E+03  0.00000000000E+00 0.  1.
<mgrwt>
<rscale>  2 0.22647459E+02</rscale>
<asrwt>0</asrwt>
<pdfrwt beam="1">  1       21 0.11649963E-02 0.22647459E+02</pdfrwt>
<pdfrwt beam="2">  1        1 0.14113672E+00 0.22647459E+02</pdfrwt>
<totfact> 0.50685393E+05</totfact>
</mgrwt>
</event>
<event>
 4    1  0.2177230E+006  0.2004032E+02  0.7546771E-02  0.1744528E+00
         21   -1    0    0  501  502  0.00000000000E+00  0.00000000000E+00  0.22092727624E+03  0.22092727624E+03  0.00000000000E+00 0.  1.
          2   -1    0    0  503    0 -0.00000000000E+00 -0.00000000000E+00 -0.37885546445E+01  0.37885546445E+01  0.00000000000E+00 0.  1.
         21    1    1    2  503  502  0.19674532235E+02  0.38114392860E+01  0.18960514663E+03  0.19066128583E+03  0.00000000000E+00 0.  1.
          2    1    1    2  501    0 -0.19674532235E+02 -0.38114392860E+01  0.27533574969E+02  0.34054545052E+02  0.00000000000E+00 0.  1.
<mgrwt>
<rscale>  2 0.20040317E+02</rscale>
<asrwt>0</asrwt>
<pdfrwt beam="1">  1       21 0.33988802E-01 0.20040317E+02</pdfrwt>
<pdfrwt beam="2">  1        2 0.58285473E-03 0.20040317E+02</pdfrwt>
<totfact> 0.20219338E+06</totfact>
</mgrwt>
</event>
<event>
 4    1  0.2177230E+006  0.3488222E+02  0.7546771E-02  0.1549649E+00
          1   -1    0    0  503    0 -0.00000000000E+00  0.00000000000E+00  0.87096986863E+02  0.87096986863E+02  0.00000000000E+00 0.  1.
         21   -1    0    0  501  502  0.00000000000E+00 -0.00000000000E+00 -0.14319821367E+02  0.14319821367E+02  0.00000000000E+00 0.  1.
         21    1    1    2  503  502 -0.34311052467E+02 -0.62865573665E+01  0.44311071589E+02  0.56393618347E+02  0.00000000000E+00 0.  1.
          1    1    1    2  501    0  0.34311052467E+02  0.62865573665E+01  0.28466093906E+02  0.45023189882E+02  0.00000000000E+00 0.  1.
<mgrwt>
<rscale>  2 0.34882218E+02</rscale>
<asrwt>0</asrwt>
<pdfrwt beam="2">  1       21 0.22030495E-02 0.34882218E+02</pdfrwt>
<pdfrwt beam="1">  1        1 0.13399536E-01 0.34882218E+02</pdfrwt>
<totfact> 0.36867482E+06</totfact>
</mgrwt>
</event>
<event>
 4    1  0.2177230E+006  0.2189759E+02  0.7546771E-02  0.1710029E+00
         21   -1    0    0  501  502  0.00000000000E+00  0.00000000000E+00  0.13521739712E+01  0.13521739712E+01  0.00000000000E+00 0. -1.
          1   -1    0    0  503    0 -0.00000000000E+00 -0.00000000000E+00 -0.16382603567E+04  0.16382603567E+04  0.00000000000E+00 0. -1.
         21    1    1    2  503  502  0.21895080616E+02  0.33162222803E+00 -0.92779563108E+02  0.95328651826E+02  0.00000000000E+00 0. -1.
          1    1    1    2  501    0 -0.21895080616E+02 -0.33162222803E+00 -0.15441286197E+04  0.15442838789E+04  0.00000000000E+00 0. -1.
<mgrwt>
<rscale>  2 0.21897592E+02</rscale>
<asrwt>0</asrwt>
<pdfrwt beam="1">  1       21 0.20802605E-03 0.21897592E+02</pdfrwt>
<pdfrwt beam="2">  1        1 0.25204092E+00 0.21897592E+02</pdfrwt>
<totfact> 0.22599421E+06</totfact>
</mgrwt>
</event>
<event>
 4    1  0.2177230E+006  0.4070027E+02  0.7546771E-02  0.1503121E+00
          1   -1    0    0  503    0 -0.00000000000E+00  0.00000000000E+00  0.10474384412E+04  0.10474384412E+04  0.00000000000E+00 0.  1.
         21   -1    0    0  501  502  0.00000000000E+00 -0.00000000000E+00 -0.20557944778E+01  0.20557944778E+01  0.00000000000E+00 0.  1.
         21    1    1    2  503  502 -0.32215218343E+02 -0.24873510253E+02  0.27063968039E+03  0.27368293408E+03  0.00000000000E+00 0.  1.
          1    1    1    2  501    0  0.32215218343E+02  0.24873510253E+02  0.77474296630E+03  0.77581130157E+03  0.00000000000E+00 0.  1.
<mgrwt>
<rscale>  2 0.40700268E+02</rscale>
<asrwt>0</asrwt>
<pdfrwt beam="2">  1       21 0.31627691E-03 0.40700268E+02</pdfrwt>
<pdfrwt beam="1">  1        1 0.16114395E+00 0.40700268E+02</pdfrwt>
<totfact> 0.31713697E+06</totfact>
</mgrwt>
</event>
<event>
 4    1  0.2177230E+006  0.3032708E+02  0.7546771E-02  0.1594501E+00
         21   -1    0    0  501  502  0.00000000000E+00  0.00000000000E+00  0.11444221577E+02  0.11444221577E+02  0.00000000000E+00 0. -1.
          1   -1    0    0  503    0 -0.00000000000E+00 -0.00000000000E+00 -0.17659281932E+03  0.17659281932E+03  0.00000000000E+00 0. -1.
         21    1    1    2  503  502  0.26469843319E+02  0.14801331535E+02 -0.13172003854E+02  0.33064084836E+02  0.00000000000E+00 0. -1.
          1    1    1    2  501    0 -0.26469843319E+02 -0.14801331535E+02 -0.15197659389E+03  0.15497295606E+03  0.00000000000E+00 0. -1.
<mgrwt>
<rscale>  2 0.30327084E+02</rscale>
<asrwt>0</asrwt>
<pdfrwt beam="1">  1       21 0.17606496E-02 0.30327084E+02</pdfrwt>
<pdfrwt beam="2">  1        1 0.27168125E-01 0.30327084E+02</pdfrwt>
<totfact> 0.21496655E+06</totfact>
</mgrwt>
</event>
<event>
 4    1  0.2177230E+006  0.3107028E+02  0.7546771E-02  0.1586551E+00
         -1   -1    0    0    0  501 -0.00000000000E+00  0.00000000000E+00  0.33634706075E+03  0.33634706075E+03  0.00000000000E+00 0.  1.
         21   -1    0    0  503  502  0.00000000000E+00 -0.00000000000E+00 -0.25148249822E+02  0.25148249822E+02  0.00000000000E+00 0. -1.
         21    1    1    2  503  501 -0.28434233089E+01 -0.30939896514E+02 -0.14521617516E+02  0.34296350063E+02  0.00000000000E+00 0. -1.
         -1    1    1    2    0  502  0.28434233089E+01  0.30939896514E+02  0.32572042845E+03  0.32719896051E+03  0.00000000000E+00 0.  1.
<mgrwt>
<rscale>  2 0.31070279E+02</rscale>
<asrwt>0</asrwt>
<pdfrwt beam="2">  1       21 0.38689617E-02 0.31070279E+02</pdfrwt>
<pdfrwt beam="1">  1       -1 0.51745699E-01 0.31070279E+02</pdfrwt>
<totfact> 0.12751942E+05</totfact>
</mgrwt>
</event>
<event>
 4    1  0.2177230E+006  0.3378787E+02  0.7546771E-02  0.1559636E+00
         -2   -1    0    0    0  501 -0.00000000000E+00  0.00000000000E+00  0.35735588066E+02  0.35735588066E+02  0.00000000000E+00 0.  1.
         21   -1    0    0  503  502  0.00000000000E+00 -0.00000000000E+00 -0.19412334155E+04  0.19412334155E+04  0.00000000000E+00 0.  1.
         21    1    1    2  503  501  0.46358120444E+01  0.33468332311E+02 -0.19330660752E+04  0.19333613401E+04  0.00000000000E+00 0.  1.
         -2    1    1    2    0  502 -0.46358120444E+01 -0.33468332311E+02  0.27568247861E+02  0.43607663445E+02  0.00000000000E+00 0.  1.
<mgrwt>
<rscale>  2 0.33787868E+02</rscale>
<asrwt>0</asrwt>
<pdfrwt beam="2">  1       21 0.29865129E+00 0.33787868E+02</pdfrwt>
<pdfrwt beam="1">  1       -2 0.54977830E-02 0.33787868E+02</pdfrwt>
<totfact> 0.62090844E+02</totfact>
</mgrwt>
</event>
<event>
 4    1  0.2177230E+006  0.3052827E+02  0.7546771E-02  0.1592322E+00
          1   -1    0    0  503    0 -0.00000000000E+00  0.00000000000E+00  0.11967159895E+04  0.11967159895E+04  0.00000000000E+00 0. -1.
         21   -1    0    0  501  502  0.00000000000E+00 -0.00000000000E+00 -0.14303444765E+01  0.14303444765E+01  0.00000000000E+00 0.  1.
         21    1    1    2  503  502  0.88436553457E+01 -0.29219261702E+02  0.19330992669E+03  0.19570565463E+03  0.00000000000E+00 0.  1.
          1    1    1    2  501    0 -0.88436553457E+01  0.29219261702E+02  0.10019757183E+04  0.10024406793E+04  0.00000000000E+00 0. -1.
<mgrwt>
<rscale>  2 0.30528274E+02</rscale>
<asrwt>0</asrwt>
<pdfrwt beam="2">  1       21 0.22005395E-03 0.30528274E+02</pdfrwt>
<pdfrwt beam="1">  1        1 0.18410935E+00 0.30528274E+02</pdfrwt>
<totfact> 0.41116589E+06</totfact>
</mgrwt>
</event>
<event>
 4    1  0.2177230E+006  0.2452530E+02  0.7546771E-02  0.1667915E+00
         21   -1    0    0  501  502  0.00000000000E+00  0.00000000000E+00  0.46357961061E+01  0.46357961061E+01  0.00000000000E+00 0.  1.
          2   -1    0    0  503    0 -0.00000000000E+00 -0.00000000000E+00 -0.14456305376E+04  0.14456305376E+04  0.00000000000E+00 0.  1.
         21    1    1    2  503  502 -0.23908376585E+02 -0.54662565430E+01 -0.28670396461E+02  0.37729061276E+02  0.00000000000E+00 0.  1.
          2    1    1    2  501    0  0.23908376585E+02  0.54662565430E+01 -0.14123243450E+04  0.14125372724E+04  0.00000000000E+00 0.  1.
<mgrwt>
<rscale>  2 0.24525302E+02</rscale>
<asrwt>0</asrwt>
<pdfrwt beam="1">  1       21 0.71319868E-03 0.24525302E+02</pdfrwt>
<pdfrwt beam="2">  1        2 0.22240492E+00 0.24525302E+02</pdfrwt>
<totfact> 0.10117823E+06</totfact>
</mgrwt>
</event>
<event>
 4    1  0.2177230E+006  0.2840981E+02  0.7546771E-02  0.1616362E+00
          1   -1    0    0  503    0 -0.00000000000E+00  0.00000000000E+00  0.76306449630E+01  0.76306449630E+01  0.00000000000E+00 0.  1.
         21   -1    0    0  501  502  0.00000000000E+00 -0.00000000000E+00 -0.27458250113E+03  0.27458250113E+03  0.00000000000E+00 0. -1.
         21    1    1    2  503  502 -0.18428937338E+02  0.21621552302E+02 -0.24411514244E+03  0.24576273115E+03  0.00000000000E+00 0. -1.
          1    1    1    2  501    0  0.18428937338E+02 -0.21621552302E+02 -0.22836713724E+02  0.36450414937E+02  0.00000000000E+00 0.  1.
<mgrwt>
<rscale>  2 0.28409809E+02</rscale>
<asrwt>0</asrwt>
<pdfrwt beam="2">  1       21 0.42243455E-01 0.28409809E+02</pdfrwt>
<pdfrwt beam="1">  1        1 0.11739456E-02 0.28409809E+02</pdfrwt>
<totfact> 0.56775160E+05</totfact>
</mgrwt>
</event>
<event>
 4    1  0.2177230E+006  0.2128761E+02  0.7546771E-02  0.1720872E+00
          2   -1    0    0  502    0 -0.00000000000E+00  0.00000000000E+00  0.11731116864E+03  0.11731116864E+03  0.00000000000E+00 0. -1.
         21   -1    0    0  503  502  0.00000000000E+00 -0.00000000000E+00 -0.91508797914E+03  0.91508797914E+03  0.00000000000E+00 0.  1.
         21    1    1    2  503  501 -0.10638551853E+02  0.18438646786E+02 -0.91399729641E+03  0.91424516424E+03  0.00000000000E+00 0.  1.
          2    1    1    2  501    0  0.10638551853E+02 -0.18438646786E+02  0.11622048591E+03  0.11815398354E+03  0.00000000000E+00 0. -1.
<mgrwt>
<rscale>  2 0.21287613E+02</rscale>
<asrwt>0</asrwt>
<pdfrwt beam="2">  1       21 0.14078277E+00 0.21287613E+02</pdfrwt>
<pdfrwt beam="1">  1        2 0.18047872E-01 0.21287613E+02</pdfrwt>
<totfact> 0.16324433E+03</totfact>
</mgrwt>
</event>
<event>
 4    1  0.2177230E+006  0.2821741E+02  0.7546771E-02  0.1618672E+00
         21   -1    0    0  501  502  0.00000000000E+00  0.00000000000E+00  0.33097233295E+03  0.33097233295E+03  0.00000000000E+00 0.  1.
         -2   -1    0    0    0  501 -0.00000000000E+00 -0.00000000000E+00 -0.29642382428E+03  0.29642382428E+03  0.00000000000E+00 0.  1.
         21    1    1    2  503  502  0.27471546614E+02  0.64448738553E+01  0.32969678955E+03  0.33090209324E+03  0.00000000000E+00 0.  1.
         -2    1    1    2    0  503 -0.27471546614E+02 -0.64448738553E+01 -0.29514828088E+03  0.29649406398E+03  0.00000000000E+00 0.  1.
<mgrwt>
<rscale>  2 0.28217411E+02</rscale>
<asrwt>0</asrwt>
<pdfrwt beam="1">  1       21 0.50918820E-01 0.28217411E+02</pdfrwt>
<pdfrwt beam="2">  1       -2 0.45603665E-01 0.28217411E+02</pdfrwt>
<totfact> 0.14873777E+03</totfact>
</mgrwt>
</event>
<event>
 4    1  0.2177230E+006  0.5142329E+02  0.7546771E-02  0.1437812E+00
         21   -1    0    0  503  502  0.00000000000E+00  0.00000000000E+00  0.92484199461E+01  0.92484199461E+01  0.00000000000E+00 0.  1.
          1   -1    0    0  502    0 -0.00000000000E+00 -0.00000000000E+00 -0.47527579903E+03  0.47527579903E+03  0.00000000000E+00 0. -1.
         21    1    1    2  503  501  0.34526715119E+02  0.38108544809E+02 -0.80100087183E+02  0.95186024243E+02  0.00000000000E+00 0.  1.
          1    1    1    2  501    0 -0.34526715119E+02 -0.38108544809E+02 -0.38592729190E+03  0.38933819473E+03  0.00000000000E+00 0. -1.
<mgrwt>
<rscale>  2 0.51423295E+02</rscale>
<asrwt>0</asrwt>
<pdfrwt beam="1">  1       21 0.14228338E-02 0.51423295E+02</pdfrwt>
<pdfrwt beam="2">  1        1 0.73119355E-01 0.51423295E+02</pdfrwt>
<totfact> 0.10034696E+06</totfact>
</mgrwt>
</event>
<event>
 4    1  0.2177230E+006  0.3112446E+02  0.7546771E-02  0.1585982E+00
          2   -1    0    0  502    0 -0.00000000000E+00  0.00000000000E+00  0.15225425835E+03  0.15225425835E+03  0.00000000000E+00 0.  1.
         21   -1    0    0  503  502  0.00000000000E+00 -0.00000000000E+00 -0.66649356518E+01  0.66649356518E+01  0.00000000000E+00 0. -1.
         21    1    1    2  503  501  0.12872963456E+02  0.28337591229E+02  0.55870924491E+02  0.63955394364E+02  0.00000000000E+00 0. -1.
          2    1    1    2  501    0 -0.12872963456E+02 -0.28337591229E+02  0.89718398211E+02  0.94963799642E+02  0.00000000000E+00 0.  1.
<mgrwt>
<rscale>  2 0.31124464E+02</rscale>
<asrwt>0</asrwt>
<pdfrwt beam="2">  1       21 0.10253748E-02 0.31124464E+02</pdfrwt>
<pdfrwt beam="1">  1        2 0.23423729E-01 0.31124464E+02</pdfrwt>
<totfact> 0.74195533E+06</totfact>
</mgrwt>
</event>
<event>
 4    1  0.2177230E+006  0.2578740E+02  0.7546771E-02  0.1649943E+00
         -4   -1    0    0    0  501 -0.00000000000E+00  0.00000000000E+00  0.35033061459E+02  0.35033061459E+02  0.00000000000E+00 0.  1.
         21   -1    0    0  503  502  0.00000000000E+00 -0.00000000000E+00 -0.21898935894E+02  0.21898935894E+02  0.00000000000E+00 0.  1.
         21    1    1    2  503  501 -0.10982133200E+02 -0.23332006358E+02 -0.38224442161E+01  0.26069155147E+02  0.00000000000E+00 0.  1.
         -4    1    1    2    0  502  0.10982133200E+02  0.23332006358E+02  0.16956569781E+02  0.30862842206E+02  0.00000000000E+00 0.  1.
<mgrwt>
<rscale>  2 0.25787396E+02</rscale>
<asrwt>0</asrwt>
<pdfrwt beam="2">  1       21 0.33690671E-02 0.25787396E+02</pdfrwt>
<pdfrwt beam="1">  1       -4 0.53897018E-02 0.25787396E+02</pdfrwt>
<totfact> 0.25887385E+06</totfact>
</mgrwt>
</event>
<event>
 4    1  0.2177230E+006  0.2577219E+02  0.7546771E-02  0.1650152E+00
          2   -1    0    0  503    0 -0.00000000000E+00  0.00000000000E+00  0.12498688603E+03  0.12498688603E+03  0.00000000000E+00 0.  1.
         21   -1    0    0  501  502  0.00000000000E+00 -0.00000000000E+00 -0.37044283073E+02  0.37044283073E+02  0.00000000000E+00 0. -1.
         21    1    1    2  503  502 -0.24126858194E+02  0.90609374413E+01 -0.31008372291E+02  0.40320280576E+02  0.00000000000E+00 0. -1.
          2    1    1    2  501    0  0.24126858194E+02 -0.90609374413E+01  0.11895097525E+03  0.12171088853E+03  0.00000000000E+00 0.  1.
<mgrwt>
<rscale>  2 0.25772192E+02</rscale>
<asrwt>0</asrwt>
<pdfrwt beam="2">  1       21 0.56991205E-02 0.25772192E+02</pdfrwt>
<pdfrwt beam="1">  1        2 0.19228751E-01 0.25772192E+02</pdfrwt>
<totfact> 0.60651209E+05</totfact>
</mgrwt>
</event>
<event>
 4    1  0.2177230E+006  0.2599455E+02  0.7546771E-02  0.1647114E+00
          2   -1    0    0  502    0 -0.00000000000E+00  0.00000000000E+00  0.87563055782E+02  0.87563055782E+02  0.00000000000E+00 0. -1.
         21   -1    0    0  503  502  0.00000000000E+00 -0.00000000000E+00 -0.39902294841E+02  0.39902294841E+02  0.00000000000E+00 0. -1.
         21    1    1    2  503  501 -0.16014954171E+01 -0.25945174340E+02 -0.33408682640E+02  0.42330331145E+02  0.00000000000E+00 0. -1.
          2    1    1    2  501    0  0.16014954171E+01  0.25945174340E+02  0.81069443581E+02  0.85135019478E+02  0.00000000000E+00 0. -1.
<mgrwt>
<rscale>  2 0.25994554E+02</rscale>
<asrwt>0</asrwt>
<pdfrwt beam="2">  1       21 0.61388146E-02 0.25994554E+02</pdfrwt>
<pdfrwt beam="1">  1        2 0.13471239E-01 0.25994554E+02</pdfrwt>
<totfact> 0.79520398E+05</totfact>
</mgrwt>
</event>
<event>
 4    1  0.2177230E+006  0.2019737E+02  0.7546771E-02  0.1741431E+00
         -4   -1    0    0    0  501 -0.00000000000E+00  0.00000000000E+00  0.48380523721E+03  0.48380523721E+03  0.00000000000E+00 0. -1.
         21   -1    0    0  503  502  0.00000000000E+00 -0.00000000000E+00 -0.20549412940E+01  0.20549412940E+01  0.00000000000E+00 0.  1.
         21    1    1    2  503  501  0.17197745577E+02  0.10591102376E+02  0.54327186489E+02  0.57960133663E+02  0.00000000000E+00 0.  1.
         -4    1    1    2    0  502 -0.17197745577E+02 -0.10591102376E+02  0.42742310943E+03  0.42790004484E+03  0.00000000000E+00 0. -1.
<mgrwt>
<rscale>  2 0.20197374E+02</rscale>
<asrwt>0</asrwt>
<pdfrwt beam="2">  1       21 0.31614520E-03 0.20197374E+02</pdfrwt>
<pdfrwt beam="1">  1       -4 0.74431484E-01 0.20197374E+02</pdfrwt>
<totfact> 0.83289389E+05</totfact>
</mgrwt>
</event>
<event>
 4    1  0.2177230E+006  0.2043454E+02  0.7546771E-02  0.1736822E+00
          1   -1    0    0  502    0 -0.00000000000E+00  0.00000000000E+00  0.46435564421E+02  0.46435564421E+02  0.00000000000E+00 0. -1.
         21   -1    0    0  503  502  0.00000000000E+00 -0.00000000000E+00 -0.97329601912E+01  0.97329601912E+01  0.00000000000E+00 0.  1.
         21    1    1    2  503  501  0.85242328869E+01 -0.18571690272E+02  0.10604875196E+02  0.23022458683E+02  0.00000000000E+00 0.  1.
          1    1    1    2  501    0 -0.85242328869E+01  0.18571690272E+02  0.26097729034E+02  0.33146065930E+02  0.00000000000E+00 0. -1.
<mgrwt>
<rscale>  2 0.20434535E+02</rscale>
<asrwt>0</asrwt>
<pdfrwt beam="2">  1       21 0.14973785E-02 0.20434535E+02</pdfrwt>
<pdfrwt beam="1">  1        1 0.71439329E-02 0.20434535E+02</pdfrwt>
<totfact> 0.12684984E+07</totfact>
</mgrwt>
</event>
<event>
 4    1  0.2177230E+006  0.2550744E+02  0.7546771E-02  0.1653819E+00
          2   -1    0    0  502    0 -0.00000000000E+00  0.00000000000E+00  0.14622259007E+04  0.14622259007E+04  0.00000000000E+00 0. -1.
         21   -1    0    0  503  502  0.00000000000E+00 -0.00000000000E+00 -0.10366132940E+01  0.10366132940E+01  0.00000000000E+00 0. -1.
         21    1    1    2  503  501 -0.23414503890E+02  0.10118822133E+02  0.17785816074E+03  0.17967791989E+03  0.00000000000E+00 0. -1.
          2    1    1    2  501    0  0.23414503890E+02 -0.10118822133E+02  0.12833311267E+04  0.12835845941E+04  0.00000000000E+00 0. -1.
<mgrwt>
<rscale>  2 0.25507441E+02</rscale>
<asrwt>0</asrwt>
<pdfrwt beam="2">  1       21 0.15948014E-03 0.25507441E+02</pdfrwt>
<pdfrwt beam="1">  1        2 0.22495618E+00 0.25507441E+02</pdfrwt>
<totfact> 0.89855282E+06</totfact>
</mgrwt>
</event>
<event>
 4    1  0.2177230E+006  0.2320157E+02  0.7546771E-02  0.1688263E+00
          2   -1    0    0  503    0 -0.00000000000E+00  0.00000000000E+00  0.78062125878E+03  0.78062125878E+03  0.00000000000E+00 0. -1.
         21   -1    0    0  501  502  0.00000000000E+00 -0.00000000000E+00 -0.86421243348E+00  0.86421243348E+00  0.00000000000E+00 0. -1.
         21    1    1    2  503  502 -0.17771202851E+02 -0.14916332663E+02  0.21423818024E+03  0.21549085944E+03  0.00000000000E+00 0. -1.
          2    1    1    2  501    0  0.17771202851E+02  0.14916332663E+02  0.56551886611E+03  0.56599461177E+03  0.00000000000E+00 0. -1.
<mgrwt>
<rscale>  2 0.23201565E+02</rscale>
<asrwt>0</asrwt>
<pdfrwt beam="2">  1       21 0.13295638E-03 0.23201565E+02</pdfrwt>
<pdfrwt beam="1">  1        2 0.12009502E+00 0.23201565E+02</pdfrwt>
<totfact> 0.26090348E+07</totfact>
</mgrwt>
</event>
<event>
 4    1  0.2177230E+006  0.2053177E+02  0.7546771E-02  0.1734955E+00
         21   -1    0    0  501  502  0.00000000000E+00  0.00000000000E+00  0.41106131473E+00  0.41106131473E+00  0.00000000000E+00 0.  1.
          2   -1    0    0  503    0 -0.00000000000E+00 -0.00000000000E+00 -0.12825431326E+04  0.12825431326E+04  0.00000000000E+00 0. -1.
         21    1    1    2  503  502  0.13746946546E+02 -0.15250415698E+02 -0.35390407049E+03  0.35449914644E+03  0.00000000000E+00 0.  1.
          2    1    1    2  501    0 -0.13746946546E+02  0.15250415698E+02 -0.92822800083E+03  0.92845504751E+03  0.00000000000E+00 0. -1.
<mgrwt>
<rscale>  2 0.20531773E+02</rscale>
<asrwt>0</asrwt>
<pdfrwt beam="1">  1       21 0.63239000E-04 0.20531773E+02</pdfrwt>
<pdfrwt beam="2">  1        2 0.19731808E+00 0.20531773E+02</pdfrwt>
<totfact> 0.38753425E+07</totfact>
</mgrwt>
</event>
<event>
 4    1  0.2177230E+006  0.2019481E+02  0.7546771E-02  0.1741482E+00
         -2   -1    0    0    0  501 -0.00000000000E+00  0.00000000000E+00  0.48399952500E+00  0.48399952500E+00  0.00000000000E+00 0.  1.
         21   -1    0    0  503  502  0.00000000000E+00 -0.00000000000E+00 -0.93038305773E+03  0.93038305773E+03  0.00000000000E+00 0. -1.
         21    1    1    2  503  501 -0.10376811183E+02  0.17324902441E+02 -0.60789435977E+03  0.60822971244E+03  0.00000000000E+00 0. -1.
         -2    1    1    2    0  502  0.10376811183E+02 -0.17324902441E+02 -0.32200469843E+03  0.32263734481E+03  0.00000000000E+00 0.  1.
<mgrwt>
<rscale>  2 0.20194813E+02</rscale>
<asrwt>0</asrwt>
<pdfrwt beam="2">  1       21 0.14313591E+00 0.20194813E+02</pdfrwt>
<pdfrwt beam="1">  1       -2 0.74461436E-04 0.20194813E+02</pdfrwt>
<totfact> 0.15465420E+06</totfact>
</mgrwt>
</event>
<event>
 4    1  0.2177230E+006  0.2058948E+02  0.7546771E-02  0.1733853E+00
         21   -1    0    0  501  502  0.00000000000E+00  0.00000000000E+00  0.19404887094E+02  0.19404887094E+02  0.00000000000E+00 0.  1.
         -3   -1    0    0    0  501 -0.00000000000E+00 -0.00000000000E+00 -0.76200995670E+03  0.76200995670E+03  0.00000000000E+00 0.  1.
         21    1    1    2  503  502  0.11095252772E+02 -0.17344224291E+02  0.13763479568E+02  0.24766108297E+02  0.00000000000E+00 0.  1.
         -3    1    1    2    0  503 -0.11095252772E+02  0.17344224291E+02 -0.75636854917E+03  0.75664873549E+03  0.00000000000E+00 0.  1.
<mgrwt>
<rscale>  2 0.20589482E+02</rscale>
<asrwt>0</asrwt>
<pdfrwt beam="1">  1       21 0.29853673E-02 0.20589482E+02</pdfrwt>
<pdfrwt beam="2">  1       -3 0.11723230E+00 0.20589482E+02</pdfrwt>
<totfact> 0.14765812E+04</totfact>
</mgrwt>
</event>
<event>
 4    1  0.2177230E+006  0.2307589E+02  0.7546771E-02  0.1690283E+00
         21   -1    0    0  503  502  0.00000000000E+00  0.00000000000E+00  0.21410118330E+02  0.21410118330E+02  0.00000000000E+00 0. -1.
          1   -1    0    0  502    0 -0.00000000000E+00 -0.00000000000E+00 -0.13983157363E+03  0.13983157363E+03  0.00000000000E+00 0.  1.
         21    1    1    2  503  501 -0.23051067086E+02 -0.10700093365E+01  0.13889494868E+02  0.26933523377E+02  0.00000000000E+00 0. -1.
          1    1    1    2  501    0  0.23051067086E+02  0.10700093365E+01 -0.13231095016E+03  0.13430816858E+03  0.00000000000E+00 0.  1.
<mgrwt>
<rscale>  2 0.23075888E+02</rscale>
<asrwt>0</asrwt>
<pdfrwt beam="1">  1       21 0.32938644E-02 0.23075888E+02</pdfrwt>
<pdfrwt beam="2">  1        1 0.21512550E-01 0.23075888E+02</pdfrwt>
<totfact> 0.10123425E+06</totfact>
</mgrwt>
</event>
<event>
 4    1  0.2177230E+006  0.2101937E+02  0.7546771E-02  0.1725785E+00
         21   -1    0    0  501  502  0.00000000000E+00  0.00000000000E+00  0.20323454188E+03  0.20323454188E+03  0.00000000000E+00 0. -1.
          2   -1    0    0  503    0 -0.00000000000E+00 -0.00000000000E+00 -0.26423762764E+01  0.26423762764E+01  0.00000000000E+00 0. -1.
         21    1    1    2  503  502 -0.20146733380E+02  0.59935824811E+01  0.14363906885E+03  0.14516885340E+03  0.00000000000E+00 0. -1.
          2    1    1    2  501    0  0.20146733380E+02 -0.59935824811E+01  0.56953096751E+02  0.60708064756E+02  0.00000000000E+00 0. -1.
<mgrwt>
<rscale>  2 0.21019370E+02</rscale>
<asrwt>0</asrwt>
<pdfrwt beam="1">  1       21 0.31266840E-01 0.21019370E+02</pdfrwt>
<pdfrwt beam="2">  1        2 0.40651959E-03 0.21019370E+02</pdfrwt>
<totfact> 0.38200858E+06</totfact>
</mgrwt>
</event>
<event>
 4    1  0.2177230E+006  0.2013434E+02  0.7546771E-02  0.1742670E+00
         21   -1    0    0  503  502  0.00000000000E+00  0.00000000000E+00  0.55267432735E+02  0.55267432735E+02  0.00000000000E+00 0.  1.
         -2   -1    0    0    0  501 -0.00000000000E+00 -0.00000000000E+00 -0.99003794175E+02  0.99003794175E+02  0.00000000000E+00 0.  1.
         21    1    1    2  503  501  0.14712827450E+02  0.13744972813E+02  0.52355000716E+02  0.56093116059E+02  0.00000000000E+00 0.  1.
         -2    1    1    2    0  502 -0.14712827450E+02 -0.13744972813E+02 -0.96091362156E+02  0.98178110851E+02  0.00000000000E+00 0.  1.
<mgrwt>
<rscale>  2 0.20134338E+02</rscale>
<asrwt>0</asrwt>
<pdfrwt beam="1">  1       21 0.85026820E-02 0.20134338E+02</pdfrwt>
<pdfrwt beam="2">  1       -2 0.15231353E-01 0.20134338E+02</pdfrwt>
<totfact> 0.21900198E+05</totfact>
</mgrwt>
</event>
<event>
 4    1  0.2177230E+006  0.2022730E+02  0.7546771E-02  0.1740845E+00
         21   -1    0    0  501  502  0.00000000000E+00  0.00000000000E+00  0.50693446553E+02  0.50693446553E+02  0.00000000000E+00 0.  1.
          2   -1    0    0  503    0 -0.00000000000E+00 -0.00000000000E+00 -0.20664419144E+03  0.20664419144E+03  0.00000000000E+00 0.  1.
         21    1    1    2  503  502  0.20118962482E+02  0.20906636111E+01  0.48155701144E+02  0.52231361061E+02  0.00000000000E+00 0.  1.
          2    1    1    2  501    0 -0.20118962482E+02 -0.20906636111E+01 -0.20410644603E+03  0.20510627693E+03  0.00000000000E+00 0.  1.
<mgrwt>
<rscale>  2 0.20227297E+02</rscale>
<asrwt>0</asrwt>
<pdfrwt beam="1">  1       21 0.77989918E-02 0.20227297E+02</pdfrwt>
<pdfrwt beam="2">  1        2 0.31791414E-01 0.20227297E+02</pdfrwt>
<totfact> 0.20904003E+05</totfact>
</mgrwt>
</event>
<event>
 4    1  0.2177230E+006  0.2501988E+02  0.7546771E-02  0.1660717E+00
          3   -1    0    0  503    0 -0.00000000000E+00  0.00000000000E+00  0.27218558866E+02  0.27218558866E+02  0.00000000000E+00 0. -1.
         21   -1    0    0  501  502  0.00000000000E+00 -0.00000000000E+00 -0.18325751748E+04  0.18325751748E+04  0.00000000000E+00 0. -1.
         21    1    1    2  503  502 -0.24180688559E+02 -0.64256207766E+01 -0.18267216522E+04  0.18268929878E+04  0.00000000000E+00 0. -1.
          3    1    1    2  501    0  0.24180688559E+02  0.64256207766E+01  0.21365036280E+02  0.32900745840E+02  0.00000000000E+00 0. -1.
<mgrwt>
<rscale>  2 0.25019878E+02</rscale>
<asrwt>0</asrwt>
<pdfrwt beam="2">  1       21 0.28193468E+00 0.25019878E+02</pdfrwt>
<pdfrwt beam="1">  1        3 0.41874700E-02 0.25019878E+02</pdfrwt>
<totfact> 0.76982323E+02</totfact>
</mgrwt>
</event>
<event>
 4    1  0.2177230E+006  0.2102742E+02  0.7546771E-02  0.1725636E+00
         -4   -1    0    0    0  501 -0.00000000000E+00  0.00000000000E+00  0.59564982125E+03  0.59564982125E+03  0.00000000000E+00 0. -1.
         21   -1    0    0  501  502  0.00000000000E+00 -0.00000000000E+00 -0.44494043977E+01  0.44494043977E+01  0.00000000000E+00 0. -1.
         21    1    1    2  503  502 -0.10638997754E+02  0.18137362672E+02  0.21720783184E+02  0.30231516999E+02  0.00000000000E+00 0. -1.
         -4    1    1    2    0  503  0.10638997754E+02 -0.18137362672E+02  0.56947963367E+03  0.56986770865E+03  0.00000000000E+00 0. -1.
<mgrwt>
<rscale>  2 0.21027415E+02</rscale>
<asrwt>0</asrwt>
<pdfrwt beam="2">  1       21 0.68452423E-03 0.21027415E+02</pdfrwt>
<pdfrwt beam="1">  1       -4 0.91638371E-01 0.21027415E+02</pdfrwt>
<totfact> 0.17586440E+05</totfact>
</mgrwt>
</event>
<event>
 4    1  0.2177230E+006  0.5394702E+02  0.7546771E-02  0.1425145E+00
          2   -1    0    0  502    0 -0.00000000000E+00  0.00000000000E+00  0.17902832900E+04  0.17902832900E+04  0.00000000000E+00 0.  1.
         21   -1    0    0  503  502  0.00000000000E+00 -0.00000000000E+00 -0.31576141014E+01  0.31576141014E+01  0.00000000000E+00 0. -1.
         21    1    1    2  503  501 -0.16004829044E+02 -0.51518213089E+02  0.26895242278E+03  0.27430947222E+03  0.00000000000E+00 0. -1.
          2    1    1    2  501    0  0.16004829044E+02  0.51518213089E+02  0.15181732532E+04  0.15191314319E+04  0.00000000000E+00 0.  1.
<mgrwt>
<rscale>  2 0.53947019E+02</rscale>
<asrwt>0</asrwt>
<pdfrwt beam="2">  1       21 0.48578821E-03 0.53947019E+02</pdfrwt>
<pdfrwt beam="1">  1        2 0.27542739E+00 0.53947019E+02</pdfrwt>
<totfact> 0.13430864E+06</totfact>
</mgrwt>
</event>
<event>
 4    1  0.2177230E+006  0.2053535E+02  0.7546771E-02  0.1734887E+00
         21   -1    0    0  503  502  0.00000000000E+00  0.00000000000E+00  0.15613463976E+03  0.15613463976E+03  0.00000000000E+00 0. -1.
          1   -1    0    0  502    0 -0.00000000000E+00 -0.00000000000E+00 -0.16885687813E+03  0.16885687813E+03  0.00000000000E+00 0.  1.
         21    1    1    2  503  501  0.20414007611E+02 -0.22290725958E+01  0.15482983584E+03  0.15618571810E+03  0.00000000000E+00 0. -1.
          1    1    1    2  501    0 -0.20414007611E+02  0.22290725958E+01 -0.16755207421E+03  0.16880579979E+03  0.00000000000E+00 0.  1.
<mgrwt>
<rscale>  2 0.20535347E+02</rscale>
<asrwt>0</asrwt>
<pdfrwt beam="1">  1       21 0.24020714E-01 0.20535347E+02</pdfrwt>
<pdfrwt beam="2">  1        1 0.25977981E-01 0.20535347E+02</pdfrwt>
<totfact> 0.30243831E+04</totfact>
</mgrwt>
</event>
<event>
 4    1  0.2177230E+006  0.3025606E+02  0.7546771E-02  0.1595275E+00
          2   -1    0    0  502    0 -0.00000000000E+00  0.00000000000E+00  0.15100985884E+04  0.15100985884E+04  0.00000000000E+00 0.  1.
         21   -1    0    0  503  502  0.00000000000E+00 -0.00000000000E+00 -0.85506090828E+01  0.85506090828E+01  0.00000000000E+00 0. -1.
         21    1    1    2  503  501  0.25986394521E+02  0.15496332282E+02  0.18860735519E+02  0.35653279775E+02  0.00000000000E+00 0. -1.
          2    1    1    2  501    0 -0.25986394521E+02 -0.15496332282E+02  0.14826872438E+04  0.14829959177E+04  0.00000000000E+00 0.  1.
<mgrwt>
<rscale>  2 0.30256057E+02</rscale>
<asrwt>0</asrwt>
<pdfrwt beam="2">  1       21 0.13154795E-02 0.30256057E+02</pdfrwt>
<pdfrwt beam="1">  1        2 0.23232265E+00 0.30256057E+02</pdfrwt>
<totfact> 0.38337802E+05</totfact>
</mgrwt>
</event>
<event>
 4    1  0.2177230E+006  0.3109517E+02  0.7546771E-02  0.1586289E+00
          4   -1    0    0  502    0 -0.00000000000E+00  0.00000000000E+00  0.77707962489E+03  0.77707962489E+03  0.00000000000E+00 0.  1.
         21   -1    0    0  503  502  0.00000000000E+00 -0.00000000000E+00 -0.15176961576E+02  0.15176961576E+02  0.00000000000E+00 0.  1.
         21    1    1    2  503  501 -0.41666176929E+01  0.30814754446E+02  0.14085835635E+01  0.31127060610E+02  0.00000000000E+00 0.  1.
          4    1    1    2  501    0  0.41666176929E+01 -0.30814754446E+02  0.76049407975E+03  0.76112952586E+03  0.00000000000E+00 0.  1.
<mgrwt>
<rscale>  2 0.31095173E+02</rscale>
<asrwt>0</asrwt>
<pdfrwt beam="2">  1       21 0.23349178E-02 0.31095173E+02</pdfrwt>
<pdfrwt beam="1">  1        4 0.11955068E+00 0.31095173E+02</pdfrwt>
<totfact> 0.17082674E+04</totfact>
</mgrwt>
</event>
<event>
 4    1  0.2177230E+006  0.2373743E+02  0.7546771E-02  0.1679828E+00
          1   -1    0    0  503    0 -0.00000000000E+00  0.00000000000E+00  0.10913802286E+04  0.10913802286E+04  0.00000000000E+00 0.  1.
         21   -1    0    0  501  502  0.00000000000E+00 -0.00000000000E+00 -0.22807319143E+02  0.22807319143E+02  0.00000000000E+00 0. -1.
         21    1    1    2  503  502 -0.18685432466E+02 -0.14639681722E+02 -0.16465784812E+02  0.28889232196E+02  0.00000000000E+00 0. -1.
          1    1    1    2  501    0  0.18685432466E+02  0.14639681722E+02  0.10850386943E+04  0.10852983156E+04  0.00000000000E+00 0.  1.
<mgrwt>
<rscale>  2 0.23737432E+02</rscale>
<asrwt>0</asrwt>
<pdfrwt beam="2">  1       21 0.35088192E-02 0.23737432E+02</pdfrwt>
<pdfrwt beam="1">  1        1 0.16790461E+00 0.23737432E+02</pdfrwt>
<totfact> 0.71537310E+04</totfact>
</mgrwt>
</event>
<event>
 4    1  0.2177230E+006  0.2453870E+02  0.7546771E-02  0.1667717E+00
         21   -1    0    0  501  502  0.00000000000E+00  0.00000000000E+00  0.24221244444E+01  0.24221244444E+01  0.00000000000E+00 0. -1.
          2   -1    0    0  503    0 -0.00000000000E+00 -0.00000000000E+00 -0.37523574587E+03  0.37523574587E+03  0.00000000000E+00 0. -1.
         21    1    1    2  503  502  0.22177765892E+02 -0.10502130393E+02 -0.76711262839E+02  0.80540461193E+02  0.00000000000E+00 0. -1.
          2    1    1    2  501    0 -0.22177765892E+02  0.10502130393E+02 -0.29610235858E+03  0.29711740912E+03  0.00000000000E+00 0. -1.
<mgrwt>
<rscale>  2 0.24538705E+02</rscale>
<asrwt>0</asrwt>
<pdfrwt beam="1">  1       21 0.37263469E-03 0.24538705E+02</pdfrwt>
<pdfrwt beam="2">  1        2 0.57728551E-01 0.24538705E+02</pdfrwt>
<totfact> 0.12706670E+07</totfact>
</mgrwt>
</event>
<event>
 4    1  0.2177230E+006  0.3412560E+02  0.7546771E-02  0.1556505E+00
          2   -1    0    0  503    0 -0.00000000000E+00  0.00000000000E+00  0.29083858032E+03  0.29083858032E+03  0.00000000000E+00 0. -1.
         21   -1    0    0  501  502  0.00000000000E+00 -0.00000000000E+00 -0.44676170358E+01  0.44676170358E+01  0.00000000000E+00 0. -1.
         21    1    1    2  503  502  0.28231198316E+02  0.19171756342E+02  0.95627734481E+02  0.10153433115E+03  0.00000000000E+00 0. -1.
          2    1    1    2  501    0 -0.28231198316E+02 -0.19171756342E+02  0.19074322880E+03  0.19377186621E+03  0.00000000000E+00 0. -1.
<mgrwt>
<rscale>  2 0.34125603E+02</rscale>
<asrwt>0</asrwt>
<pdfrwt beam="2">  1       21 0.68732593E-03 0.34125603E+02</pdfrwt>
<pdfrwt beam="1">  1        2 0.44744382E-01 0.34125603E+02</pdfrwt>
<totfact> 0.71540615E+06</totfact>
</mgrwt>
</event>
<event>
 4    1  0.2177230E+006  0.2350349E+02  0.7546771E-02  0.1683476E+00
          2   -1    0    0  502    0 -0.00000000000E+00  0.00000000000E+00  0.50672650410E+03  0.50672650410E+03  0.00000000000E+00 0.  1.
         21   -1    0    0  503  502  0.00000000000E+00 -0.00000000000E+00 -0.18920357877E+01  0.18920357877E+01  0.00000000000E+00 0.  1.
         21    1    1    2  503  501  0.23500904539E+02 -0.34846434295E+00  0.86859091173E+02  0.89982863152E+02  0.00000000000E+00 0.  1.
          2    1    1    2  501    0 -0.23500904539E+02  0.34846434295E+00  0.41797537714E+03  0.41863567674E+03  0.00000000000E+00 0.  1.
<mgrwt>
<rscale>  2 0.23503488E+02</rscale>
<asrwt>0</asrwt>
<pdfrwt beam="2">  1       21 0.29108283E-03 0.23503488E+02</pdfrwt>
<pdfrwt beam="1">  1        2 0.77957816E-01 0.23503488E+02</pdfrwt>
<totfact> 0.13348176E+07</totfact>
</mgrwt>
</event>
<event>
 4    1  0.2177230E+006  0.2107531E+02  0.7546771E-02  0.1724753E+00
         21   -1    0    0  501  502  0.00000000000E+00  0.00000000000E+00  0.18486017175E+02  0.18486017175E+02  0.00000000000E+00 0. -1.
          2   -1    0    0  503    0 -0.00000000000E+00 -0.00000000000E+00 -0.40154900782E+03  0.40154900782E+03  0.00000000000E+00 0. -1.
         21    1    1    2  503  502 -0.19255517561E+02  0.85670063816E+01  0.12105749533E+02  0.24304685282E+02  0.00000000000E+00 0. -1.
          2    1    1    2  501    0  0.19255517561E+02 -0.85670063816E+01 -0.39516874018E+03  0.39573033971E+03  0.00000000000E+00 0. -1.
<mgrwt>
<rscale>  2 0.21075307E+02</rscale>
<asrwt>0</asrwt>
<pdfrwt beam="1">  1       21 0.28440028E-02 0.21075307E+02</pdfrwt>
<pdfrwt beam="2">  1        2 0.61776768E-01 0.21075307E+02</pdfrwt>
<totfact> 0.53957735E+05</totfact>
</mgrwt>
</event>
<event>
 4    1  0.2177230E+006  0.2056017E+02  0.7546771E-02  0.1734412E+00
          2   -1    0    0  502    0 -0.00000000000E+00  0.00000000000E+00  0.10932271971E+04  0.10932271971E+04  0.00000000000E+00 0. -1.
         21   -1    0    0  503  502  0.00000000000E+00 -0.00000000000E+00 -0.60300894796E+00  0.60300894796E+00  0.00000000000E+00 0. -1.
         21    1    1    2  503  501  0.18646655419E+02  0.86615696850E+01  0.21872770083E+03  0.21969189256E+03  0.00000000000E+00 0. -1.
          2    1    1    2  501    0 -0.18646655419E+02 -0.86615696850E+01  0.87389648737E+03  0.87413831354E+03  0.00000000000E+00 0. -1.
<mgrwt>
<rscale>  2 0.20560169E+02</rscale>
<asrwt>0</asrwt>
<pdfrwt beam="2">  1       21 0.92771482E-04 0.20560169E+02</pdfrwt>
<pdfrwt beam="1">  1        2 0.16818721E+00 0.20560169E+02</pdfrwt>
<totfact> 0.28062052E+07</totfact>
</mgrwt>
</event>
<event>
 4    1  0.2177230E+006  0.2005576E+02  0.7546771E-02  0.1744222E+00
          2   -1    0    0  503    0 -0.00000000000E+00  0.00000000000E+00  0.13394205592E+04  0.13394205592E+04  0.00000000000E+00 0.  1.
         21   -1    0    0  501  502  0.00000000000E+00 -0.00000000000E+00 -0.34798770721E+01  0.34798770721E+01  0.00000000000E+00 0.  1.
         21    1    1    2  503  502 -0.18119611712E+02 -0.85972729807E+01  0.26145873769E+02  0.32952088651E+02  0.00000000000E+00 0.  1.
          2    1    1    2  501    0  0.18119611712E+02  0.85972729807E+01  0.13097948084E+04  0.13099483477E+04  0.00000000000E+00 0.  1.
<mgrwt>
<rscale>  2 0.20055758E+02</rscale>
<asrwt>0</asrwt>
<pdfrwt beam="2">  1       21 0.53536677E-03 0.20055758E+02</pdfrwt>
<pdfrwt beam="1">  1        2 0.20606429E+00 0.20055758E+02</pdfrwt>
<totfact> 0.16823710E+06</totfact>
</mgrwt>
</event>
<event>
 4    1  0.2177230E+006  0.2197524E+02  0.7546771E-02  0.1708681E+00
         21   -1    0    0  501  502  0.00000000000E+00  0.00000000000E+00  0.21627104744E+00  0.21627104744E+00  0.00000000000E+00 0.  1.
          2   -1    0    0  503    0 -0.00000000000E+00 -0.00000000000E+00 -0.23009605325E+04  0.23009605325E+04  0.00000000000E+00 0. -1.
         21    1    1    2  503  502 -0.13557870307E+02  0.17294371248E+02 -0.95248369280E+03  0.95273716007E+03  0.00000000000E+00 0.  1.
          2    1    1    2  501    0  0.13557870307E+02 -0.17294371248E+02 -0.13482605686E+04  0.13484396434E+04  0.00000000000E+00 0. -1.
<mgrwt>
<rscale>  2 0.21975239E+02</rscale>
<asrwt>0</asrwt>
<pdfrwt beam="1">  1       21 0.33273880E-04 0.21975239E+02</pdfrwt>
<pdfrwt beam="2">  1        2 0.35397892E+00 0.21975239E+02</pdfrwt>
<totfact> 0.32471016E+07</totfact>
</mgrwt>
</event>
<event>
 4    1  0.2177230E+006  0.2923632E+02  0.7546771E-02  0.1606687E+00
          2   -1    0    0  503    0 -0.00000000000E+00  0.00000000000E+00  0.21665850414E+03  0.21665850414E+03  0.00000000000E+00 0.  1.
         21   -1    0    0  501  502  0.00000000000E+00 -0.00000000000E+00 -0.56686769447E+01  0.56686769447E+01  0.00000000000E+00 0. -1.
         21    1    1    2  503  502 -0.93240992310E+01  0.27709625131E+02  0.44200081805E+02  0.52994427848E+02  0.00000000000E+00 0. -1.
          2    1    1    2  501    0  0.93240992310E+01 -0.27709625131E+02  0.16678974539E+03  0.16933275323E+03  0.00000000000E+00 0.  1.
<mgrwt>
<rscale>  2 0.29236316E+02</rscale>
<asrwt>0</asrwt>
<pdfrwt beam="2">  1       21 0.87210431E-03 0.29236316E+02</pdfrwt>
<pdfrwt beam="1">  1        2 0.33332071E-01 0.29236316E+02</pdfrwt>
<totfact> 0.64871965E+06</totfact>
</mgrwt>
</event>
<event>
 4    1  0.2177230E+006  0.2139786E+02  0.7546771E-02  0.1718879E+00
         21   -1    0    0  503  502  0.00000000000E+00  0.00000000000E+00  0.57763576903E+02  0.57763576903E+02  0.00000000000E+00 0.  1.
          2   -1    0    0  502    0 -0.00000000000E+00 -0.00000000000E+00 -0.40783240497E+03  0.40783240497E+03  0.00000000000E+00 0.  1.
         21    1    1    2  503  501 -0.21222377311E+02 -0.27347874764E+01  0.55490156078E+02  0.59472899567E+02  0.00000000000E+00 0.  1.
          2    1    1    2  501    0  0.21222377311E+02  0.27347874764E+01 -0.40555898414E+03  0.40612308230E+03  0.00000000000E+00 0.  1.
<mgrwt>
<rscale>  2 0.21397859E+02</rscale>
<asrwt>0</asrwt>
<pdfrwt beam="1">  1       21 0.88867040E-02 0.21397859E+02</pdfrwt>
<pdfrwt beam="2">  1        2 0.62743448E-01 0.21397859E+02</pdfrwt>
<totfact> 0.87102043E+04</totfact>
</mgrwt>
</event>
<event>
 4    1  0.2177230E+006  0.2094106E+02  0.7546771E-02  0.1727237E+00
          2   -1    0    0  502    0 -0.00000000000E+00  0.00000000000E+00  0.60898137252E+03  0.60898137252E+03  0.00000000000E+00 0. -1.
         21   -1    0    0  503  502  0.00000000000E+00 -0.00000000000E+00 -0.14237155966E+03  0.14237155966E+03  0.00000000000E+00 0.  1.
         21    1    1    2  503  501  0.20939088567E+02 -0.28732980447E+00 -0.14142028866E+03  0.14296232382E+03  0.00000000000E+00 0.  1.
          2    1    1    2  501    0 -0.20939088567E+02  0.28732980447E+00  0.60803010152E+03  0.60839060836E+03  0.00000000000E+00 0. -1.
<mgrwt>
<rscale>  2 0.20941060E+02</rscale>
<asrwt>0</asrwt>
<pdfrwt beam="2">  1       21 0.21903317E-01 0.20941060E+02</pdfrwt>
<pdfrwt beam="1">  1        2 0.93689441E-01 0.20941060E+02</pdfrwt>
<totfact> 0.12651008E+04</totfact>
</mgrwt>
</event>
<event>
 4    1  0.2177230E+006  0.3718381E+02  0.7546771E-02  0.1530021E+00
         21   -1    0    0  501  502  0.00000000000E+00  0.00000000000E+00  0.46392757234E+01  0.46392757234E+01  0.00000000000E+00 0. -1.
          3   -1    0    0  503    0 -0.00000000000E+00 -0.00000000000E+00 -0.10479466615E+04  0.10479466615E+04  0.00000000000E+00 0.  1.
         21    1    1    2  503  502 -0.22260975823E+02 -0.29783968193E+02 -0.76443652048E+02  0.85007456992E+02  0.00000000000E+00 0. -1.
          3    1    1    2  501    0  0.22260975823E+02  0.29783968193E+02 -0.96686373369E+03  0.96757848019E+03  0.00000000000E+00 0.  1.
<mgrwt>
<rscale>  2 0.37183811E+02</rscale>
<asrwt>0</asrwt>
<pdfrwt beam="1">  1       21 0.71373426E-03 0.37183811E+02</pdfrwt>
<pdfrwt beam="2">  1        3 0.16122267E+00 0.37183811E+02</pdfrwt>
<totfact> 0.71919113E+04</totfact>
</mgrwt>
</event>
<event>
 4    1  0.2177230E+006  0.3264738E+02  0.7546771E-02  0.1570543E+00
         21   -1    0    0  501  502  0.00000000000E+00  0.00000000000E+00  0.16626926534E+02  0.16626926534E+02  0.00000000000E+00 0.  1.
          1   -1    0    0  503    0 -0.00000000000E+00 -0.00000000000E+00 -0.52567430475E+03  0.52567430475E+03  0.00000000000E+00 0. -1.
         21    1    1    2  503  502  0.28752230048E+02 -0.15464815709E+02 -0.44327665379E+00  0.32650386703E+02  0.00000000000E+00 0.  1.
          1    1    1    2  501    0 -0.28752230048E+02  0.15464815709E+02 -0.50860410157E+03  0.50965084459E+03  0.00000000000E+00 0. -1.
<mgrwt>
<rscale>  2 0.32647378E+02</rscale>
<asrwt>0</asrwt>
<pdfrwt beam="1">  1       21 0.25579890E-02 0.32647378E+02</pdfrwt>
<pdfrwt beam="2">  1        1 0.80872962E-01 0.32647378E+02</pdfrwt>
<totfact> 0.33456952E+05</totfact>
</mgrwt>
</event>
<event>
 4    1  0.2177230E+006  0.2443587E+02  0.7546771E-02  0.1669239E+00
         21   -1    0    0  503  502  0.00000000000E+00  0.00000000000E+00  0.12193244141E+04  0.12193244141E+04  0.00000000000E+00 0. -1.
         -2   -1    0    0    0  501 -0.00000000000E+00 -0.00000000000E+00 -0.79328160883E+00  0.79328160883E+00  0.00000000000E+00 0. -1.
         21    1    1    2  503  501 -0.23623519072E+02 -0.62482958274E+01  0.98665581071E+03  0.98695835812E+03  0.00000000000E+00 0. -1.
         -2    1    1    2    0  502  0.23623519072E+02  0.62482958274E+01  0.23187532181E+03  0.23315933762E+03  0.00000000000E+00 0. -1.
<mgrwt>
<rscale>  2 0.24435872E+02</rscale>
<asrwt>0</asrwt>
<pdfrwt beam="1">  1       21 0.18758687E+00 0.24435872E+02</pdfrwt>
<pdfrwt beam="2">  1       -2 0.12204430E-03 0.24435872E+02</pdfrwt>
<totfact> 0.43534578E+05</totfact>
</mgrwt>
</event>
<event>
 4    1  0.2177230E+006  0.2252104E+02  0.7546771E-02  0.1699394E+00
          2   -1    0    0  503    0 -0.00000000000E+00  0.00000000000E+00  0.99908138030E+01  0.99908138030E+01  0.00000000000E+00 0.  1.
         21   -1    0    0  501  502  0.00000000000E+00 -0.00000000000E+00 -0.51134963968E+02  0.51134963968E+02  0.00000000000E+00 0.  1.
         21    1    1    2  503  502 -0.21998455981E+02 -0.48233885442E+01 -0.17977168229E+02  0.28816240562E+02  0.00000000000E+00 0.  1.
          2    1    1    2  501    0  0.21998455981E+02  0.48233885442E+01 -0.23166981936E+02  0.32309537209E+02  0.00000000000E+00 0.  1.
<mgrwt>
<rscale>  2 0.22521038E+02</rscale>
<asrwt>0</asrwt>
<pdfrwt beam="2">  1       21 0.78669177E-02 0.22521038E+02</pdfrwt>
<pdfrwt beam="1">  1        2 0.15370482E-02 0.22521038E+02</pdfrwt>
<totfact> 0.73127803E+06</totfact>
</mgrwt>
</event>
<event>
 4    1  0.2177230E+006  0.2123295E+02  0.7546771E-02  0.1721866E+00
          2   -1    0    0  503    0 -0.00000000000E+00  0.00000000000E+00  0.46547348947E+03  0.46547348947E+03  0.00000000000E+00 0. -1.
         21   -1    0    0  501  502  0.00000000000E+00 -0.00000000000E+00 -0.10066089121E+01  0.10066089121E+01  0.00000000000E+00 0. -1.
         21    1    1    2  503  502 -0.16906810781E+02  0.12845143355E+02  0.18688559407E+03  0.18808791357E+03  0.00000000000E+00 0. -1.
          2    1    1    2  501    0  0.16906810781E+02 -0.12845143355E+02  0.27758128649E+03  0.27839218481E+03  0.00000000000E+00 0. -1.
<mgrwt>
<rscale>  2 0.21232945E+02</rscale>
<asrwt>0</asrwt>
<pdfrwt beam="2">  1       21 0.15486328E-03 0.21232945E+02</pdfrwt>
<pdfrwt beam="1">  1        2 0.71611134E-01 0.21232945E+02</pdfrwt>
<totfact> 0.35090249E+07</totfact>
</mgrwt>
</event>
<event>
 4    1  0.2177230E+006  0.2625319E+02  0.7546771E-02  0.1643628E+00
         21   -1    0    0  503  502  0.00000000000E+00  0.00000000000E+00  0.37546185234E+02  0.37546185234E+02  0.00000000000E+00 0.  1.
          1   -1    0    0  502    0 -0.00000000000E+00 -0.00000000000E+00 -0.11369732173E+04  0.11369732173E+04  0.00000000000E+00 0.  1.
         21    1    1    2  503  501 -0.17182901591E+02  0.19848875824E+02  0.32786130115E+02  0.42001908367E+02  0.00000000000E+00 0.  1.
          1    1    1    2  501    0  0.17182901591E+02 -0.19848875824E+02 -0.11322131622E+04  0.11325174942E+04  0.00000000000E+00 0.  1.
<mgrwt>
<rscale>  2 0.26253190E+02</rscale>
<asrwt>0</asrwt>
<pdfrwt beam="1">  1       21 0.57763356E-02 0.26253190E+02</pdfrwt>
<pdfrwt beam="2">  1        1 0.17491898E+00 0.26253190E+02</pdfrwt>
<totfact> 0.30405965E+04</totfact>
</mgrwt>
</event>
<event>
 4    1  0.2177230E+006  0.3079241E+02  0.7546771E-02  0.1589491E+00
         21   -1    0    0  503  502  0.00000000000E+00  0.00000000000E+00  0.62518957126E+01  0.62518957126E+01  0.00000000000E+00 0. -1.
         -2   -1    0    0    0  501 -0.00000000000E+00 -0.00000000000E+00 -0.11102582079E+04  0.11102582079E+04  0.00000000000E+00 0.  1.
         21    1    1    2  503  501  0.29991470297E+02 -0.69774046322E+01 -0.33276446164E+02  0.45337559873E+02  0.00000000000E+00 0. -1.
         -2    1    1    2    0  502 -0.29991470297E+02  0.69774046322E+01 -0.10707298660E+04  0.10711725437E+04  0.00000000000E+00 0.  1.
<mgrwt>
<rscale>  2 0.30792409E+02</rscale>
<asrwt>0</asrwt>
<pdfrwt beam="1">  1       21 0.96183105E-03 0.30792409E+02</pdfrwt>
<pdfrwt beam="2">  1       -2 0.17080879E+00 0.30792409E+02</pdfrwt>
<totfact> 0.62968658E+04</totfact>
</mgrwt>
</event>
<event>
 4    1  0.2177230E+006  0.2015784E+02  0.7546771E-02  0.1742207E+00
         21   -1    0    0  503  502  0.00000000000E+00  0.00000000000E+00  0.30741404444E+01  0.30741404444E+01  0.00000000000E+00 0. -1.
          2   -1    0    0  502    0 -0.00000000000E+00 -0.00000000000E+00 -0.34960008647E+03  0.34960008647E+03  0.00000000000E+00 0.  1.
         21    1    1    2  503  501  0.17427042556E+02  0.10130972518E+02 -0.34201037261E+02  0.39699488236E+02  0.00000000000E+00 0. -1.
          2    1    1    2  501    0 -0.17427042556E+02 -0.10130972518E+02 -0.31232490876E+03  0.31297473868E+03  0.00000000000E+00 0.  1.
<mgrwt>
<rscale>  2 0.20157838E+02</rscale>
<asrwt>0</asrwt>
<pdfrwt beam="1">  1       21 0.47294502E-03 0.20157838E+02</pdfrwt>
<pdfrwt beam="2">  1        2 0.53784590E-01 0.20157838E+02</pdfrwt>
<totfact> 0.90851522E+06</totfact>
</mgrwt>
</event>
<event>
 4    1  0.2177230E+006  0.2194087E+02  0.7546771E-02  0.1709277E+00
         21   -1    0    0  501  502  0.00000000000E+00  0.00000000000E+00  0.51637270137E+01  0.51637270137E+01  0.00000000000E+00 0.  1.
          2   -1    0    0  503    0 -0.00000000000E+00 -0.00000000000E+00 -0.49114600378E+03  0.49114600378E+03  0.00000000000E+00 0. -1.
         21    1    1    2  503  502 -0.18716467134E+02 -0.11449699289E+02 -0.19626452056E+02  0.29438059993E+02  0.00000000000E+00 0.  1.
          2    1    1    2  501    0  0.18716467134E+02  0.11449699289E+02 -0.46635582471E+03  0.46687167080E+03  0.00000000000E+00 0. -1.
<mgrwt>
<rscale>  2 0.21940870E+02</rscale>
<asrwt>0</asrwt>
<pdfrwt beam="1">  1       21 0.79441948E-03 0.21940870E+02</pdfrwt>
<pdfrwt beam="2">  1        2 0.75560929E-01 0.21940870E+02</pdfrwt>
<totfact> 0.30843731E+06</totfact>
</mgrwt>
</event>
<event>
 4    1  0.2177230E+006  0.2301050E+02  0.7546771E-02  0.1691340E+00
         21   -1    0    0  501  502  0.00000000000E+00  0.00000000000E+00  0.20104664562E+02  0.20104664562E+02  0.00000000000E+00 0.  1.
         -1   -1    0    0    0  501 -0.00000000000E+00 -0.00000000000E+00 -0.80092179076E+02  0.80092179076E+02  0.00000000000E+00 0. -1.
         21    1    1    2  503  502 -0.14096365840E+01  0.22967281667E+02  0.11049502744E+02  0.25525959598E+02  0.00000000000E+00 0.  1.
         -1    1    1    2    0  503  0.14096365840E+01 -0.22967281667E+02 -0.71037017258E+02  0.74670884041E+02  0.00000000000E+00 0. -1.
<mgrwt>
<rscale>  2 0.23010500E+02</rscale>
<asrwt>0</asrwt>
<pdfrwt beam="1">  1       21 0.30930253E-02 0.23010500E+02</pdfrwt>
<pdfrwt beam="2">  1       -1 0.12321874E-01 0.23010500E+02</pdfrwt>
<totfact> 0.16540476E+06</totfact>
</mgrwt>
</event>
<event>
 4    1  0.2177230E+006  0.2434317E+02  0.7546771E-02  0.1670619E+00
         21   -1    0    0  501  502  0.00000000000E+00  0.00000000000E+00  0.35877045977E+00  0.35877045977E+00  0.00000000000E+00 0. -1.
          2   -1    0    0  503    0 -0.00000000000E+00 -0.00000000000E+00 -0.18131258405E+04  0.18131258405E+04  0.00000000000E+00 0.  1.
         21    1    1    2  503  502  0.24122104711E+02 -0.32732201685E+01 -0.63584840369E+03  0.63631421670E+03  0.00000000000E+00 0. -1.
          2    1    1    2  501    0 -0.24122104711E+02  0.32732201685E+01 -0.11769186664E+04  0.11771703943E+04  0.00000000000E+00 0.  1.
<mgrwt>
<rscale>  2 0.24343170E+02</rscale>
<asrwt>0</asrwt>
<pdfrwt beam="1">  1       21 0.55196589E-04 0.24343170E+02</pdfrwt>
<pdfrwt beam="2">  1        2 0.27893671E+00 0.24343170E+02</pdfrwt>
<totfact> 0.27633070E+07</totfact>
</mgrwt>
</event>
<event>
 4    1  0.2177230E+006  0.2401106E+02  0.7546771E-02  0.1675627E+00
          1   -1    0    0  503    0 -0.00000000000E+00  0.00000000000E+00  0.36641336119E+03  0.36641336119E+03  0.00000000000E+00 0. -1.
         21   -1    0    0  501  502  0.00000000000E+00 -0.00000000000E+00 -0.49714354452E+01  0.49714354452E+01  0.00000000000E+00 0.  1.
         21    1    1    2  503  502  0.75242475165E+01  0.22801685442E+02  0.27201189963E+02  0.36282721716E+02  0.00000000000E+00 0.  1.
          1    1    1    2  501    0 -0.75242475165E+01 -0.22801685442E+02  0.33424073578E+03  0.33510207492E+03  0.00000000000E+00 0. -1.
<mgrwt>
<rscale>  2 0.24011063E+02</rscale>
<asrwt>0</asrwt>
<pdfrwt beam="2">  1       21 0.76483651E-03 0.24011063E+02</pdfrwt>
<pdfrwt beam="1">  1        1 0.56371265E-01 0.24011063E+02</pdfrwt>
<totfact> 0.30888992E+06</totfact>
</mgrwt>
</event>
<event>
 4    1  0.2177230E+006  0.2060912E+02  0.7546771E-02  0.1733479E+00
         21   -1    0    0  503  502  0.00000000000E+00  0.00000000000E+00  0.20967028475E+02  0.20967028475E+02  0.00000000000E+00 0. -1.
         -1   -1    0    0    0  501 -0.00000000000E+00 -0.00000000000E+00 -0.11713454053E+03  0.11713454053E+03  0.00000000000E+00 0.  1.
         21    1    1    2  503  501  0.14964858169E+02  0.14169998326E+02  0.14712963943E+02  0.25322068252E+02  0.00000000000E+00 0. -1.
         -1    1    1    2    0  502 -0.14964858169E+02 -0.14169998326E+02 -0.11088047600E+03  0.11277950076E+03  0.00000000000E+00 0.  1.
<mgrwt>
<rscale>  2 0.20609120E+02</rscale>
<asrwt>0</asrwt>
<pdfrwt beam="1">  1       21 0.32256967E-02 0.20609120E+02</pdfrwt>
<pdfrwt beam="2">  1       -1 0.18020699E-01 0.20609120E+02</pdfrwt>
<totfact> 0.85985708E+05</totfact>
</mgrwt>
</event>
<event>
 4    1  0.2177230E+006  0.3188728E+02  0.7546771E-02  0.1578118E+00
         -2   -1    0    0    0  501 -0.00000000000E+00  0.00000000000E+00  0.20424226561E+03  0.20424226561E+03  0.00000000000E+00 0.  1.
         21   -1    0    0  501  502  0.00000000000E+00 -0.00000000000E+00 -0.52157591420E+02  0.52157591420E+02  0.00000000000E+00 0. -1.
         21    1    1    2  503  502 -0.30422047496E+02  0.95549882899E+01 -0.45885897734E+02  0.55877673412E+02  0.00000000000E+00 0. -1.
         -2    1    1    2    0  503  0.30422047496E+02 -0.95549882899E+01  0.19797057192E+03  0.20052218362E+03  0.00000000000E+00 0.  1.
<mgrwt>
<rscale>  2 0.31887282E+02</rscale>
<asrwt>0</asrwt>
<pdfrwt beam="2">  1       21 0.80242450E-02 0.31887282E+02</pdfrwt>
<pdfrwt beam="1">  1       -2 0.31421887E-01 0.31887282E+02</pdfrwt>
<totfact> 0.78726677E+04</totfact>
</mgrwt>
</event>
<event>
 4    1  0.2177230E+006  0.2768914E+02  0.7546771E-02  0.1625133E+00
         -1   -1    0    0    0  501 -0.00000000000E+00  0.00000000000E+00  0.82417509397E+01  0.82417509397E+01  0.00000000000E+00 0. -1.
         21   -1    0    0  503  502  0.00000000000E+00 -0.00000000000E+00 -0.10162899656E+03  0.10162899656E+03  0.00000000000E+00 0.  1.
         21    1    1    2  503  501 -0.12550277323E+02 -0.24681548876E+02 -0.62677977574E+02  0.68521654888E+02  0.00000000000E+00 0.  1.
         -1    1    1    2    0  502  0.12550277323E+02  0.24681548876E+02 -0.30709268044E+02  0.41349092609E+02  0.00000000000E+00 0. -1.
<mgrwt>
<rscale>  2 0.27689137E+02</rscale>
<asrwt>0</asrwt>
<pdfrwt beam="2">  1       21 0.15635230E-01 0.27689137E+02</pdfrwt>
<pdfrwt beam="1">  1       -1 0.12679617E-02 0.27689137E+02</pdfrwt>
<totfact> 0.29657966E+06</totfact>
</mgrwt>
</event>
<event>
 4    1  0.2177230E+006  0.3466155E+02  0.7546771E-02  0.1551627E+00
          2   -1    0    0  503    0 -0.00000000000E+00  0.00000000000E+00  0.65537868821E+03  0.65537868821E+03  0.00000000000E+00 0. -1.
         21   -1    0    0  501  502  0.00000000000E+00 -0.00000000000E+00 -0.32851353941E+01  0.32851353941E+01  0.00000000000E+00 0. -1.
         21    1    1    2  503  502 -0.32903074007E+02 -0.10900035115E+02  0.10710192243E+03  0.11257106570E+03  0.00000000000E+00 0. -1.
          2    1    1    2  501    0  0.32903074007E+02  0.10900035115E+02  0.54499163038E+03  0.54609275790E+03  0.00000000000E+00 0. -1.
<mgrwt>
<rscale>  2 0.34661550E+02</rscale>
<asrwt>0</asrwt>
<pdfrwt beam="2">  1       21 0.50540597E-03 0.34661550E+02</pdfrwt>
<pdfrwt beam="1">  1        2 0.10082739E+00 0.34661550E+02</pdfrwt>
<totfact> 0.49427847E+06</totfact>
</mgrwt>
</event>
<event>
 4    1  0.2177230E+006  0.3046084E+02  0.7546771E-02  0.1593050E+00
         21   -1    0    0  503  502  0.00000000000E+00  0.00000000000E+00  0.10136102824E+02  0.10136102824E+02  0.00000000000E+00 0. -1.
          1   -1    0    0  502    0 -0.00000000000E+00 -0.00000000000E+00 -0.25764617239E+03  0.25764617239E+03  0.00000000000E+00 0.  1.
         21    1    1    2  503  501  0.18924258268E+02  0.23869131243E+02 -0.16249125320E+02  0.34523862051E+02  0.00000000000E+00 0. -1.
          1    1    1    2  501    0 -0.18924258268E+02 -0.23869131243E+02 -0.23126094424E+03  0.23325841316E+03  0.00000000000E+00 0.  1.
<mgrwt>
<rscale>  2 0.30460843E+02</rscale>
<asrwt>0</asrwt>
<pdfrwt beam="1">  1       21 0.15594003E-02 0.30460843E+02</pdfrwt>
<pdfrwt beam="2">  1        1 0.39637876E-01 0.30460843E+02</pdfrwt>
<totfact> 0.16642453E+06</totfact>
</mgrwt>
</event>
<event>
 4    1  0.2177230E+006  0.3571216E+02  0.7546771E-02  0.1542366E+00
         21   -1    0    0  501  502  0.00000000000E+00  0.00000000000E+00  0.61966631898E+01  0.61966631898E+01  0.00000000000E+00 0.  1.
          2   -1    0    0  503    0 -0.00000000000E+00 -0.00000000000E+00 -0.45089021765E+03  0.45089021765E+03  0.00000000000E+00 0.  1.
         21    1    1    2  503  502 -0.31187874908E+02 -0.17397557653E+02 -0.53852889513E+02  0.64618049045E+02  0.00000000000E+00 0.  1.
          2    1    1    2  501    0  0.31187874908E+02  0.17397557653E+02 -0.39084066495E+03  0.39246883180E+03  0.00000000000E+00 0.  1.
<mgrwt>
<rscale>  2 0.35712163E+02</rscale>
<asrwt>0</asrwt>
<pdfrwt beam="1">  1       21 0.95333285E-03 0.35712163E+02</pdfrwt>
<pdfrwt beam="2">  1        2 0.69367722E-01 0.35712163E+02</pdfrwt>
<totfact> 0.28284140E+06</totfact>
</mgrwt>
</event>
<event>
 4    1  0.2177230E+006  0.4713731E+02  0.7546771E-02  0.1461423E+00
          1   -1    0    0  502    0 -0.00000000000E+00  0.00000000000E+00  0.26592341007E+02  0.26592341007E+02  0.00000000000E+00 0.  1.
         21   -1    0    0  503  502  0.00000000000E+00 -0.00000000000E+00 -0.91412495558E+02  0.91412495558E+02  0.00000000000E+00 0.  1.
         21    1    1    2  503  501  0.46009561518E+02 -0.10249215339E+02 -0.49708474515E+02  0.68504442226E+02  0.00000000000E+00 0.  1.
          1    1    1    2  501    0 -0.46009561518E+02  0.10249215339E+02 -0.15111680036E+02  0.49500394339E+02  0.00000000000E+00 0.  1.
<mgrwt>
<rscale>  2 0.47137312E+02</rscale>
<asrwt>0</asrwt>
<pdfrwt beam="2">  1       21 0.14063461E-01 0.47137312E+02</pdfrwt>
<pdfrwt beam="1">  1        1 0.40911294E-02 0.47137312E+02</pdfrwt>
<totfact> 0.86314298E+05</totfact>
</mgrwt>
</event>
<event>
 4    1  0.2177230E+006  0.2066976E+02  0.7546771E-02  0.1732328E+00
         21   -1    0    0  503  502  0.00000000000E+00  0.00000000000E+00  0.12437817520E+02  0.12437817520E+02  0.00000000000E+00 0. -1.
          2   -1    0    0  502    0 -0.00000000000E+00 -0.00000000000E+00 -0.11225666496E+04  0.11225666496E+04  0.00000000000E+00 0.  1.
         21    1    1    2  503  501  0.20511125603E+02 -0.25559517776E+01  0.36877097007E+01  0.20996151214E+02  0.00000000000E+00 0. -1.
          2    1    1    2  501    0 -0.20511125603E+02  0.25559517776E+01 -0.11138165418E+04  0.11140083159E+04  0.00000000000E+00 0.  1.
<mgrwt>
<rscale>  2 0.20669764E+02</rscale>
<asrwt>0</asrwt>
<pdfrwt beam="1">  1       21 0.19135109E-02 0.20669764E+02</pdfrwt>
<pdfrwt beam="2">  1        2 0.17270252E+00 0.20669764E+02</pdfrwt>
<totfact> 0.32144430E+05</totfact>
</mgrwt>
</event>
<event>
 4    1  0.2177230E+006  0.2041639E+02  0.7546771E-02  0.1737172E+00
         21   -1    0    0  501  502  0.00000000000E+00  0.00000000000E+00  0.11578931563E+02  0.11578931563E+02  0.00000000000E+00 0.  1.
         -4   -1    0    0    0  501 -0.00000000000E+00 -0.00000000000E+00 -0.51516138772E+02  0.51516138772E+02  0.00000000000E+00 0.  1.
         21    1    1    2  503  502  0.16950113797E+02 -0.11380805718E+02 -0.26544748262E+01  0.20588232880E+02  0.00000000000E+00 0.  1.
         -4    1    1    2    0  503 -0.16950113797E+02  0.11380805718E+02 -0.37282732382E+02  0.42506837455E+02  0.00000000000E+00 0.  1.
<mgrwt>
<rscale>  2 0.20416393E+02</rscale>
<asrwt>0</asrwt>
<pdfrwt beam="1">  1       21 0.17813741E-02 0.20416393E+02</pdfrwt>
<pdfrwt beam="2">  1       -4 0.79255597E-02 0.20416393E+02</pdfrwt>
<totfact> 0.34130125E+06</totfact>
</mgrwt>
</event>
<event>
 4    1  0.2177230E+006  0.2322327E+02  0.7546771E-02  0.1687916E+00
          2   -1    0    0  503    0 -0.00000000000E+00  0.00000000000E+00  0.39672026924E+03  0.39672026924E+03  0.00000000000E+00 0. -1.
         21   -1    0    0  501  502  0.00000000000E+00 -0.00000000000E+00 -0.80110173943E+01  0.80110173943E+01  0.00000000000E+00 0.  1.
         21    1    1    2  503  502  0.73700206292E+01  0.22022789430E+02  0.99571306952E+01  0.25267863187E+02  0.00000000000E+00 0.  1.
          2    1    1    2  501    0 -0.73700206292E+01 -0.22022789430E+02  0.37875212115E+03  0.37946342345E+03  0.00000000000E+00 0. -1.
<mgrwt>
<rscale>  2 0.23223274E+02</rscale>
<asrwt>0</asrwt>
<pdfrwt beam="2">  1       21 0.12324645E-02 0.23223274E+02</pdfrwt>
<pdfrwt beam="1">  1        2 0.61033872E-01 0.23223274E+02</pdfrwt>
<totfact> 0.19992500E+06</totfact>
</mgrwt>
</event>
<event>
 4    1  0.2177230E+006  0.2316742E+02  0.7546771E-02  0.1688811E+00
         21   -1    0    0  501  502  0.00000000000E+00  0.00000000000E+00  0.26538610755E+00  0.26538610755E+00  0.00000000000E+00 0. -1.
          2   -1    0    0  503    0 -0.00000000000E+00 -0.00000000000E+00 -0.20308970381E+04  0.20308970381E+04  0.00000000000E+00 0.  1.
         21    1    1    2  503  502  0.19810748908E+02  0.12010985052E+02 -0.10808218056E+04  0.10810700740E+04  0.00000000000E+00 0. -1.
          2    1    1    2  501    0 -0.19810748908E+02 -0.12010985052E+02 -0.94980984645E+03  0.95009235022E+03  0.00000000000E+00 0.  1.
<mgrwt>
<rscale>  2 0.23167424E+02</rscale>
<asrwt>0</asrwt>
<pdfrwt beam="1">  1       21 0.40827915E-04 0.23167424E+02</pdfrwt>
<pdfrwt beam="2">  1        2 0.31245118E+00 0.23167424E+02</pdfrwt>
<totfact> 0.33066681E+07</totfact>
</mgrwt>
</event>
<event>
 4    1  0.2177230E+006  0.2376404E+02  0.7546771E-02  0.1679416E+00
         21   -1    0    0  501  502  0.00000000000E+00  0.00000000000E+00  0.74433076877E+00  0.74433076877E+00  0.00000000000E+00 0.  1.
          2   -1    0    0  503    0 -0.00000000000E+00 -0.00000000000E+00 -0.76176329528E+03  0.76176329528E+03  0.00000000000E+00 0. -1.
         21    1    1    2  503  502 -0.14631950814E+02  0.18725267640E+02 -0.40465508418E+03  0.40535227492E+03  0.00000000000E+00 0.  1.
          2    1    1    2  501    0  0.14631950814E+02 -0.18725267640E+02 -0.35636388034E+03  0.35715535113E+03  0.00000000000E+00 0. -1.
<mgrwt>
<rscale>  2 0.23764041E+02</rscale>
<asrwt>0</asrwt>
<pdfrwt beam="1">  1       21 0.11451199E-03 0.23764041E+02</pdfrwt>
<pdfrwt beam="2">  1        2 0.11719479E+00 0.23764041E+02</pdfrwt>
<totfact> 0.33430894E+07</totfact>
</mgrwt>
</event>
<event>
 4    1  0.2177230E+006  0.2019399E+02  0.7546771E-02  0.1741498E+00
          2   -1    0    0  502    0 -0.00000000000E+00  0.00000000000E+00  0.11808306317E+04  0.11808306317E+04  0.00000000000E+00 0. -1.
         21   -1    0    0  503  502  0.00000000000E+00 -0.00000000000E+00 -0.47489727413E+02  0.47489727413E+02  0.00000000000E+00 0.  1.
         21    1    1    2  503  501  0.28777579168E+01  0.19987890089E+02 -0.45252550291E+02  0.49553915574E+02  0.00000000000E+00 0.  1.
          2    1    1    2  501    0 -0.28777579168E+01 -0.19987890089E+02  0.11785934546E+04  0.11787664436E+04  0.00000000000E+00 0. -1.
<mgrwt>
<rscale>  2 0.20193990E+02</rscale>
<asrwt>0</asrwt>
<pdfrwt beam="2">  1       21 0.73061128E-02 0.20193990E+02</pdfrwt>
<pdfrwt beam="1">  1        2 0.18166623E+00 0.20193990E+02</pdfrwt>
<totfact> 0.36784519E+04</totfact>
</mgrwt>
</event>
<event>
 4    1  0.2177230E+006  0.2630017E+02  0.7546771E-02  0.1643000E+00
         21   -1    0    0  501  502  0.00000000000E+00  0.00000000000E+00  0.58926788429E+02  0.58926788429E+02  0.00000000000E+00 0.  1.
          4   -1    0    0  503    0 -0.00000000000E+00 -0.00000000000E+00 -0.53948138492E+02  0.53948138492E+02  0.00000000000E+00 0. -1.
         21    1    1    2  503  502  0.15269943852E+02  0.21413265957E+02  0.52410661321E+02  0.58639377250E+02  0.00000000000E+00 0.  1.
          4    1    1    2  501    0 -0.15269943852E+02 -0.21413265957E+02 -0.47432011384E+02  0.54235549671E+02  0.00000000000E+00 0. -1.
<mgrwt>
<rscale>  2 0.26300174E+02</rscale>
<asrwt>0</asrwt>
<pdfrwt beam="1">  1       21 0.90656598E-02 0.26300174E+02</pdfrwt>
<pdfrwt beam="2">  1        4 0.82997136E-02 0.26300174E+02</pdfrwt>
<totfact> 0.26954612E+05</totfact>
</mgrwt>
</event>
<event>
 4    1  0.2177230E+006  0.2183616E+02  0.7546771E-02  0.1711101E+00
          1   -1    0    0  502    0 -0.00000000000E+00  0.00000000000E+00  0.13690352789E+03  0.13690352789E+03  0.00000000000E+00 0.  1.
         21   -1    0    0  503  502  0.00000000000E+00 -0.00000000000E+00 -0.35458544575E+01  0.35458544575E+01  0.00000000000E+00 0. -1.
         21    1    1    2  503  501 -0.20681344495E+01 -0.21738004565E+02  0.57319930006E+02  0.61338343623E+02  0.00000000000E+00 0. -1.
          1    1    1    2  501    0  0.20681344495E+01  0.21738004565E+02  0.76037743424E+02  0.79111038721E+02  0.00000000000E+00 0.  1.
<mgrwt>
<rscale>  2 0.21836163E+02</rscale>
<asrwt>0</asrwt>
<pdfrwt beam="2">  1       21 0.54551618E-03 0.21836163E+02</pdfrwt>
<pdfrwt beam="1">  1        1 0.21062077E-01 0.21836163E+02</pdfrwt>
<totfact> 0.15603857E+07</totfact>
</mgrwt>
</event>
<event>
 4    1  0.2177230E+006  0.2180773E+02  0.7546771E-02  0.1711599E+00
         -2   -1    0    0    0  501 -0.00000000000E+00  0.00000000000E+00  0.33945672370E+02  0.33945672370E+02  0.00000000000E+00 0.  1.
         21   -1    0    0  503  502  0.00000000000E+00 -0.00000000000E+00 -0.25023241582E+02  0.25023241582E+02  0.00000000000E+00 0. -1.
         21    1    1    2  503  501 -0.19850292161E+02  0.90301158239E+01 -0.15099285225E+02  0.26524809236E+02  0.00000000000E+00 0. -1.
         -2    1    1    2    0  502  0.19850292161E+02 -0.90301158239E+01  0.24021716013E+02  0.32444104717E+02  0.00000000000E+00 0.  1.
<mgrwt>
<rscale>  2 0.21807730E+02</rscale>
<asrwt>0</asrwt>
<pdfrwt beam="2">  1       21 0.38497295E-02 0.21807730E+02</pdfrwt>
<pdfrwt beam="1">  1       -2 0.52224111E-02 0.21807730E+02</pdfrwt>
<totfact> 0.38366281E+06</totfact>
</mgrwt>
</event>
<event>
 4    1  0.2177230E+006  0.2223432E+02  0.7546771E-02  0.1704231E+00
          2   -1    0    0  502    0 -0.00000000000E+00  0.00000000000E+00  0.95226058374E+02  0.95226058374E+02  0.00000000000E+00 0.  1.
         21   -1    0    0  503  502  0.00000000000E+00 -0.00000000000E+00 -0.74762897513E+02  0.74762897513E+02  0.00000000000E+00 0. -1.
         21    1    1    2  503  501 -0.15107874735E+02 -0.16313096656E+02 -0.71758827559E+02  0.75124525517E+02  0.00000000000E+00 0. -1.
          2    1    1    2  501    0  0.15107874735E+02  0.16313096656E+02  0.92221988419E+02  0.94864430371E+02  0.00000000000E+00 0.  1.
<mgrwt>
<rscale>  2 0.22234320E+02</rscale>
<asrwt>0</asrwt>
<pdfrwt beam="2">  1       21 0.11501984E-01 0.22234320E+02</pdfrwt>
<pdfrwt beam="1">  1        2 0.14650163E-01 0.22234320E+02</pdfrwt>
<totfact> 0.25194027E+05</totfact>
</mgrwt>
</event>
<event>
 4    1  0.2177230E+006  0.2396429E+02  0.7546771E-02  0.1676340E+00
         -1   -1    0    0    0  501 -0.00000000000E+00  0.00000000000E+00  0.12620970107E+03  0.12620970107E+03  0.00000000000E+00 0. -1.
         21   -1    0    0  503  502  0.00000000000E+00 -0.00000000000E+00 -0.12898363879E+02  0.12898363879E+02  0.00000000000E+00 0. -1.
         21    1    1    2  503  501  0.11561236691E+01  0.23936381488E+02  0.69937782686E+00  0.23974488733E+02  0.00000000000E+00 0. -1.
         -1    1    1    2    0  502 -0.11561236691E+01 -0.23936381488E+02  0.11261195937E+03  0.11513357622E+03  0.00000000000E+00 0. -1.
<mgrwt>
<rscale>  2 0.23964286E+02</rscale>
<asrwt>0</asrwt>
<pdfrwt beam="2">  1       21 0.19843638E-02 0.23964286E+02</pdfrwt>
<pdfrwt beam="1">  1       -1 0.19416876E-01 0.23964286E+02</pdfrwt>
<totfact> 0.16886477E+06</totfact>
</mgrwt>
</event>
<event>
 4    1  0.2177230E+006  0.6648515E+02  0.7546771E-02  0.1372470E+00
          1   -1    0    0  502    0 -0.00000000000E+00  0.00000000000E+00  0.93071276792E+03  0.93071276792E+03  0.00000000000E+00 0. -1.
         21   -1    0    0  503  502  0.00000000000E+00 -0.00000000000E+00 -0.56934714489E+01  0.56934714489E+01  0.00000000000E+00 0. -1.
         21    1    1    2  503  501  0.10600737709E+02  0.65634595962E+02  0.27184908924E+03  0.27986104257E+03  0.00000000000E+00 0. -1.
          1    1    1    2  501    0 -0.10600737709E+02 -0.65634595962E+02  0.65317020723E+03  0.65654519680E+03  0.00000000000E+00 0. -1.
<mgrwt>
<rscale>  2 0.66485155E+02</rscale>
<asrwt>0</asrwt>
<pdfrwt beam="2">  1       21 0.87591942E-03 0.66485155E+02</pdfrwt>
<pdfrwt beam="1">  1        1 0.14318646E+00 0.66485155E+02</pdfrwt>
<totfact> 0.87073053E+05</totfact>
</mgrwt>
</event>
<event>
 4    1  0.2177230E+006  0.4040576E+02  0.7546771E-02  0.1505247E+00
          1   -1    0    0  503    0 -0.00000000000E+00  0.00000000000E+00  0.91899118060E+03  0.91899118060E+03  0.00000000000E+00 0. -1.
         21   -1    0    0  501  502  0.00000000000E+00 -0.00000000000E+00 -0.18937977875E+01  0.18937977875E+01  0.00000000000E+00 0. -1.
         21    1    1    2  503  502  0.33229748617E+02 -0.22987152737E+02  0.34397686349E+03  0.34634189466E+03  0.00000000000E+00 0. -1.
          1    1    1    2  501    0 -0.33229748617E+02  0.22987152737E+02  0.57312051933E+03  0.57454308373E+03  0.00000000000E+00 0. -1.
<mgrwt>
<rscale>  2 0.40405759E+02</rscale>
<asrwt>0</asrwt>
<pdfrwt beam="2">  1       21 0.29135424E-03 0.40405759E+02</pdfrwt>
<pdfrwt beam="1">  1        1 0.14138290E+00 0.40405759E+02</pdfrwt>
<totfact> 0.43994400E+06</totfact>
</mgrwt>
</event>
<event>
 4    1  0.2177230E+006  0.3733874E+02  0.7546771E-02  0.1528762E+00
         21   -1    0    0  501  502  0.00000000000E+00  0.00000000000E+00  0.73949943158E+03  0.73949943158E+03  0.00000000000E+00 0. -1.
          1   -1    0    0  503    0 -0.00000000000E+00 -0.00000000000E+00 -0.20192764762E+02  0.20192764762E+02  0.00000000000E+00 0. -1.
         21    1    1    2  503  502  0.15624171129E+02  0.33912629880E+02  0.72133278325E+03  0.72229852927E+03  0.00000000000E+00 0. -1.
          1    1    1    2  501    0 -0.15624171129E+02 -0.33912629880E+02 -0.20261164415E+01  0.37393667066E+02  0.00000000000E+00 0. -1.
<mgrwt>
<rscale>  2 0.37338736E+02</rscale>
<asrwt>0</asrwt>
<pdfrwt beam="1">  1       21 0.11376912E+00 0.37338736E+02</pdfrwt>
<pdfrwt beam="2">  1        1 0.31065798E-02 0.37338736E+02</pdfrwt>
<totfact> 0.20260699E+04</totfact>
</mgrwt>
</event>
<event>
 4    1  0.2177230E+006  0.2189305E+02  0.7546771E-02  0.1710108E+00
         -1   -1    0    0    0  501 -0.00000000000E+00  0.00000000000E+00  0.34517255931E+03  0.34517255931E+03  0.00000000000E+00 0.  1.
         21   -1    0    0  503  502  0.00000000000E+00 -0.00000000000E+00 -0.13944009368E+01  0.13944009368E+01  0.00000000000E+00 0.  1.
         21    1    1    2  503  501 -0.21376621632E+02 -0.47271448750E+01  0.16071027580E+03  0.16219463185E+03  0.00000000000E+00 0.  1.
         -1    1    1    2    0  502  0.21376621632E+02  0.47271448750E+01  0.18306788257E+03  0.18437232840E+03  0.00000000000E+00 0.  1.
<mgrwt>
<rscale>  2 0.21893055E+02</rscale>
<asrwt>0</asrwt>
<pdfrwt beam="2">  1       21 0.21452350E-03 0.21893055E+02</pdfrwt>
<pdfrwt beam="1">  1       -1 0.53103403E-01 0.21893055E+02</pdfrwt>
<totfact> 0.88645541E+06</totfact>
</mgrwt>
</event>
<event>
 4    1  0.2177230E+006  0.3008267E+02  0.7546771E-02  0.1597177E+00
          2   -1    0    0  502    0 -0.00000000000E+00  0.00000000000E+00  0.32520513373E+03  0.32520513373E+03  0.00000000000E+00 0. -1.
         21   -1    0    0  503  502  0.00000000000E+00 -0.00000000000E+00 -0.10342496416E+02  0.10342496416E+02  0.00000000000E+00 0. -1.
         21    1    1    2  503  501  0.29402843790E+02  0.63592125207E+01  0.13993091649E+02  0.33177905611E+02  0.00000000000E+00 0. -1.
          2    1    1    2  501    0 -0.29402843790E+02 -0.63592125207E+01  0.30086954567E+03  0.30236972454E+03  0.00000000000E+00 0. -1.
<mgrwt>
<rscale>  2 0.30082666E+02</rscale>
<asrwt>0</asrwt>
<pdfrwt beam="2">  1       21 0.15911535E-02 0.30082666E+02</pdfrwt>
<pdfrwt beam="1">  1        2 0.50031551E-01 0.30082666E+02</pdfrwt>
<totfact> 0.17387175E+06</totfact>
</mgrwt>
</event>
<event>
 4    1  0.2177230E+006  0.2327274E+02  0.7546771E-02  0.1687127E+00
         -3   -1    0    0    0  501 -0.00000000000E+00  0.00000000000E+00  0.17146277660E+03  0.17146277660E+03  0.00000000000E+00 0. -1.
         21   -1    0    0  503  502  0.00000000000E+00 -0.00000000000E+00 -0.38027951791E+01  0.38027951791E+01  0.00000000000E+00 0. -1.
         21    1    1    2  503  501 -0.51652576727E+01 -0.22692302560E+02  0.47768069422E+02  0.53135759509E+02  0.00000000000E+00 0. -1.
         -3    1    1    2    0  502  0.51652576727E+01  0.22692302560E+02  0.11989191200E+03  0.12212981227E+03  0.00000000000E+00 0. -1.
<mgrwt>
<rscale>  2 0.23272741E+02</rscale>
<asrwt>0</asrwt>
<pdfrwt beam="2">  1       21 0.58504555E-03 0.23272741E+02</pdfrwt>
<pdfrwt beam="1">  1       -3 0.26378883E-01 0.23272741E+02</pdfrwt>
<totfact> 0.33098844E+06</totfact>
</mgrwt>
</event>
<event>
 4    1  0.2177230E+006  0.2668730E+02  0.7546771E-02  0.1637886E+00
          1   -1    0    0  503    0 -0.00000000000E+00  0.00000000000E+00  0.44701786678E+01  0.44701786678E+01  0.00000000000E+00 0. -1.
         21   -1    0    0  501  502  0.00000000000E+00 -0.00000000000E+00 -0.12930494248E+04  0.12930494248E+04  0.00000000000E+00 0. -1.
         21    1    1    2  503  502  0.24905397726E+02 -0.95881717151E+01 -0.12517669777E+04  0.12520514280E+04  0.00000000000E+00 0. -1.
          1    1    1    2  501    0 -0.24905397726E+02  0.95881717151E+01 -0.36812268353E+02  0.45468175398E+02  0.00000000000E+00 0. -1.
<mgrwt>
<rscale>  2 0.26687298E+02</rscale>
<asrwt>0</asrwt>
<pdfrwt beam="2">  1       21 0.19893079E+00 0.26687298E+02</pdfrwt>
<pdfrwt beam="1">  1        1 0.68771941E-03 0.26687298E+02</pdfrwt>
<totfact> 0.38371987E+04</totfact>
</mgrwt>
</event>
<event>
 4    1  0.2177230E+006  0.2113411E+02  0.7546771E-02  0.1723672E+00
         21   -1    0    0  501  502  0.00000000000E+00  0.00000000000E+00  0.49705123299E+03  0.49705123299E+03  0.00000000000E+00 0. -1.
         -2   -1    0    0    0  501 -0.00000000000E+00 -0.00000000000E+00 -0.45891317514E+01  0.45891317514E+01  0.00000000000E+00 0. -1.
         21    1    1    2  503  502  0.18283195446E+02  0.10600724058E+02  0.47115808024E+03  0.47163183434E+03  0.00000000000E+00 0. -1.
         -2    1    1    2    0  503 -0.18283195446E+02 -0.10600724058E+02  0.21304021001E+02  0.30008530405E+02  0.00000000000E+00 0. -1.
<mgrwt>
<rscale>  2 0.21134110E+02</rscale>
<asrwt>0</asrwt>
<pdfrwt beam="1">  1       21 0.76469378E-01 0.21134110E+02</pdfrwt>
<pdfrwt beam="2">  1       -2 0.70602066E-03 0.21134110E+02</pdfrwt>
<totfact> 0.31621920E+05</totfact>
</mgrwt>
</event>
<event>
 4    1  0.2177230E+006  0.2243457E+02  0.7546771E-02  0.1700843E+00
         21   -1    0    0  503  502  0.00000000000E+00  0.00000000000E+00  0.48350027925E+01  0.48350027925E+01  0.00000000000E+00 0. -1.
          1   -1    0    0  502    0 -0.00000000000E+00 -0.00000000000E+00 -0.47066715994E+03  0.47066715994E+03  0.00000000000E+00 0.  1.
         21    1    1    2  503  501 -0.17830442905E+02  0.13615622640E+02 -0.23097454482E+02  0.32199414243E+02  0.00000000000E+00 0. -1.
          1    1    1    2  501    0  0.17830442905E+02 -0.13615622640E+02 -0.44273470266E+03  0.44330274849E+03  0.00000000000E+00 0.  1.
<mgrwt>
<rscale>  2 0.22434569E+02</rscale>
<asrwt>0</asrwt>
<pdfrwt beam="1">  1       21 0.74384656E-03 0.22434569E+02</pdfrwt>
<pdfrwt beam="2">  1        1 0.72410335E-01 0.22434569E+02</pdfrwt>
<totfact> 0.23615102E+06</totfact>
</mgrwt>
</event>
<event>
 4    1  0.2177230E+006  0.3358576E+02  0.7546771E-02  0.1561530E+00
         -3   -1    0    0    0  501 -0.00000000000E+00  0.00000000000E+00  0.52914937141E+02  0.52914937141E+02  0.00000000000E+00 0.  1.
         21   -1    0    0  503  502  0.00000000000E+00 -0.00000000000E+00 -0.72451216794E+02  0.72451216794E+02  0.00000000000E+00 0.  1.
         21    1    1    2  503  501 -0.32592799201E+02  0.81063503102E+01 -0.62428279221E+02  0.70889304705E+02  0.00000000000E+00 0.  1.
         -3    1    1    2    0  502  0.32592799201E+02 -0.81063503102E+01  0.42891999568E+02  0.54476849230E+02  0.00000000000E+00 0.  1.
<mgrwt>
<rscale>  2 0.33585763E+02</rscale>
<asrwt>0</asrwt>
<pdfrwt beam="2">  1       21 0.11146341E-01 0.33585763E+02</pdfrwt>
<pdfrwt beam="1">  1       -3 0.81407596E-02 0.33585763E+02</pdfrwt>
<totfact> 0.25251300E+05</totfact>
</mgrwt>
</event>
<event>
 4    1  0.2177230E+006  0.2505000E+02  0.7546771E-02  0.1660285E+00
          2   -1    0    0  502    0 -0.00000000000E+00  0.00000000000E+00  0.12552883176E+04  0.12552883176E+04  0.00000000000E+00 0. -1.
         21   -1    0    0  503  502  0.00000000000E+00 -0.00000000000E+00 -0.13053409599E+01  0.13053409599E+01  0.00000000000E+00 0. -1.
         21    1    1    2  503  501  0.24762272322E+02 -0.37857827536E+01  0.13345047095E+03  0.13578118603E+03  0.00000000000E+00 0. -1.
          2    1    1    2  501    0 -0.24762272322E+02  0.37857827536E+01  0.11205325057E+04  0.11208124726E+04  0.00000000000E+00 0. -1.
<mgrwt>
<rscale>  2 0.25049996E+02</rscale>
<asrwt>0</asrwt>
<pdfrwt beam="2">  1       21 0.20082269E-03 0.25049996E+02</pdfrwt>
<pdfrwt beam="1">  1        2 0.19312031E+00 0.25049996E+02</pdfrwt>
<totfact> 0.80863511E+06</totfact>
</mgrwt>
</event>
<event>
 4    1  0.2177230E+006  0.2158153E+02  0.7546771E-02  0.1715591E+00
          1   -1    0    0  503    0 -0.00000000000E+00  0.00000000000E+00  0.95953442815E+02  0.95953442815E+02  0.00000000000E+00 0.  1.
         21   -1    0    0  501  502  0.00000000000E+00 -0.00000000000E+00 -0.51340673098E+02  0.51340673098E+02  0.00000000000E+00 0. -1.
         21    1    1    2  503  502 -0.21324427462E+02  0.33213020556E+01 -0.47772736792E+02  0.52421337588E+02  0.00000000000E+00 0. -1.
          1    1    1    2  501    0  0.21324427462E+02 -0.33213020556E+01  0.92385506510E+02  0.94872778324E+02  0.00000000000E+00 0.  1.
<mgrwt>
<rscale>  2 0.21581526E+02</rscale>
<asrwt>0</asrwt>
<pdfrwt beam="2">  1       21 0.78985651E-02 0.21581526E+02</pdfrwt>
<pdfrwt beam="1">  1        1 0.14762068E-01 0.21581526E+02</pdfrwt>
<totfact> 0.38966035E+05</totfact>
</mgrwt>
</event>
<event>
 4    1  0.2177230E+006  0.2129862E+02  0.7546771E-02  0.1720672E+00
         -3   -1    0    0    0  501 -0.00000000000E+00  0.00000000000E+00  0.30545359987E+01  0.30545359987E+01  0.00000000000E+00 0. -1.
         21   -1    0    0  501  502  0.00000000000E+00 -0.00000000000E+00 -0.31555061473E+03  0.31555061473E+03  0.00000000000E+00 0. -1.
         21    1    1    2  503  502  0.20972287560E+02  0.37140544866E+01 -0.27215206240E+03  0.27298420488E+03  0.00000000000E+00 0. -1.
         -3    1    1    2    0  503 -0.20972287560E+02 -0.37140544866E+01 -0.40344016330E+02  0.45620945846E+02  0.00000000000E+00 0. -1.
<mgrwt>
<rscale>  2 0.21298616E+02</rscale>
<asrwt>0</asrwt>
<pdfrwt beam="2">  1       21 0.48546229E-01 0.21298616E+02</pdfrwt>
<pdfrwt beam="1">  1       -3 0.46992880E-03 0.21298616E+02</pdfrwt>
<totfact> 0.10447993E+06</totfact>
</mgrwt>
</event>
<event>
 4    1  0.2177230E+006  0.2599692E+02  0.7546771E-02  0.1647082E+00
         21   -1    0    0  501  502  0.00000000000E+00  0.00000000000E+00  0.26271044202E+01  0.26271044202E+01  0.00000000000E+00 0.  1.
          2   -1    0    0  503    0 -0.00000000000E+00 -0.00000000000E+00 -0.71645251795E+03  0.71645251795E+03  0.00000000000E+00 0.  1.
         21    1    1    2  503  502 -0.15976191765E+02  0.20508558177E+02 -0.69071914905E+02  0.73802229576E+02  0.00000000000E+00 0.  1.
          2    1    1    2  501    0  0.15976191765E+02 -0.20508558177E+02 -0.64475349863E+03  0.64527739279E+03  0.00000000000E+00 0.  1.
<mgrwt>
<rscale>  2 0.25996916E+02</rscale>
<asrwt>0</asrwt>
<pdfrwt beam="1">  1       21 0.40416997E-03 0.25996916E+02</pdfrwt>
<pdfrwt beam="2">  1        2 0.11022345E+00 0.25996916E+02</pdfrwt>
<totfact> 0.58804374E+06</totfact>
</mgrwt>
</event>
<event>
 4    1  0.2177230E+006  0.2205772E+02  0.7546771E-02  0.1707256E+00
         -2   -1    0    0    0  501 -0.00000000000E+00  0.00000000000E+00  0.67765448088E+02  0.67765448088E+02  0.00000000000E+00 0.  1.
         21   -1    0    0  501  502  0.00000000000E+00 -0.00000000000E+00 -0.10095006994E+03  0.10095006994E+03  0.00000000000E+00 0. -1.
         21    1    1    2  503  502 -0.12167208973E+02  0.18398425461E+02 -0.97894882465E+02  0.10034914572E+03  0.00000000000E+00 0. -1.
         -2    1    1    2    0  503  0.12167208973E+02 -0.18398425461E+02  0.64710260615E+02  0.68366372307E+02  0.00000000000E+00 0.  1.
<mgrwt>
<rscale>  2 0.22057720E+02</rscale>
<asrwt>0</asrwt>
<pdfrwt beam="2">  1       21 0.15530780E-01 0.22057720E+02</pdfrwt>
<pdfrwt beam="1">  1       -2 0.10425454E-01 0.22057720E+02</pdfrwt>
<totfact> 0.14515215E+05</totfact>
</mgrwt>
</event>
<event>
 4    1  0.2177230E+006  0.2871837E+02  0.7546771E-02  0.1612703E+00
          1   -1    0    0  502    0 -0.00000000000E+00  0.00000000000E+00  0.12239680181E+02  0.12239680181E+02  0.00000000000E+00 0. -1.
         21   -1    0    0  503  502  0.00000000000E+00 -0.00000000000E+00 -0.99140094855E+02  0.99140094855E+02  0.00000000000E+00 0. -1.
         21    1    1    2  503  501  0.14711918082E+02 -0.24663829235E+02 -0.74969235660E+02  0.80281575107E+02  0.00000000000E+00 0. -1.
          1    1    1    2  501    0 -0.14711918082E+02  0.24663829235E+02 -0.11931179014E+02  0.31098199930E+02  0.00000000000E+00 0. -1.
<mgrwt>
<rscale>  2 0.28718374E+02</rscale>
<asrwt>0</asrwt>
<pdfrwt beam="2">  1       21 0.15252323E-01 0.28718374E+02</pdfrwt>
<pdfrwt beam="1">  1        1 0.18830277E-02 0.28718374E+02</pdfrwt>
<totfact> 0.19154701E+06</totfact>
</mgrwt>
</event>
<event>
 4    1  0.2177230E+006  0.2350849E+02  0.7546771E-02  0.1683398E+00
          2   -1    0    0  502    0 -0.00000000000E+00  0.00000000000E+00  0.12541535450E+03  0.12541535450E+03  0.00000000000E+00 0.  1.
         21   -1    0    0  503  502  0.00000000000E+00 -0.00000000000E+00 -0.82517138837E+01  0.82517138837E+01  0.00000000000E+00 0. -1.
         21    1    1    2  503  501 -0.45608307739E+01  0.23061830885E+02  0.12959256392E+02  0.26843836300E+02  0.00000000000E+00 0. -1.
          2    1    1    2  501    0  0.45608307739E+01 -0.23061830885E+02  0.10420438422E+03  0.10682323208E+03  0.00000000000E+00 0.  1.
<mgrwt>
<rscale>  2 0.23508493E+02</rscale>
<asrwt>0</asrwt>
<pdfrwt beam="2">  1       21 0.12694945E-02 0.23508493E+02</pdfrwt>
<pdfrwt beam="1">  1        2 0.19294668E-01 0.23508493E+02</pdfrwt>
<totfact> 0.61341635E+06</totfact>
</mgrwt>
</event>
<event>
 4    1  0.2177230E+006  0.3392588E+02  0.7546771E-02  0.1558351E+00
         21   -1    0    0  503  502  0.00000000000E+00  0.00000000000E+00  0.10211599802E+04  0.10211599802E+04  0.00000000000E+00 0.  1.
         -4   -1    0    0    0  501 -0.00000000000E+00 -0.00000000000E+00 -0.51930769666E+01  0.51930769666E+01  0.00000000000E+00 0. -1.
         21    1    1    2  503  501 -0.27191103779E+02  0.20288157757E+02  0.96206726634E+03  0.96266525357E+03  0.00000000000E+00 0.  1.
         -4    1    1    2    0  502  0.27191103779E+02 -0.20288157757E+02  0.53899636908E+02  0.63687803610E+02  0.00000000000E+00 0. -1.
<mgrwt>
<rscale>  2 0.33925882E+02</rscale>
<asrwt>0</asrwt>
<pdfrwt beam="1">  1       21 0.15710138E+00 0.33925882E+02</pdfrwt>
<pdfrwt beam="2">  1       -4 0.79893573E-03 0.33925882E+02</pdfrwt>
<totfact> 0.38320713E+04</totfact>
</mgrwt>
</event>
<event>
 4    1  0.2177230E+006  0.2640239E+02  0.7546771E-02  0.1641639E+00
          2   -1    0    0  503    0 -0.00000000000E+00  0.00000000000E+00  0.12630827390E+04  0.12630827390E+04  0.00000000000E+00 0. -1.
         21   -1    0    0  501  502  0.00000000000E+00 -0.00000000000E+00 -0.39857721958E+02  0.39857721958E+02  0.00000000000E+00 0. -1.
         21    1    1    2  503  502 -0.45085517376E+01 -0.26014598980E+02 -0.35331684390E+02  0.44106851176E+02  0.00000000000E+00 0. -1.
          2    1    1    2  501    0  0.45085517376E+01  0.26014598980E+02  0.12585567015E+04  0.12588336098E+04  0.00000000000E+00 0. -1.
<mgrwt>
<rscale>  2 0.26402394E+02</rscale>
<asrwt>0</asrwt>
<pdfrwt beam="2">  1       21 0.61319582E-02 0.26402394E+02</pdfrwt>
<pdfrwt beam="1">  1        2 0.19432039E+00 0.26402394E+02</pdfrwt>
<totfact> 0.44858983E+04</totfact>
</mgrwt>
</event>
<event>
 4    1  0.2177230E+006  0.6227111E+02  0.7546771E-02  0.1388541E+00
          2   -1    0    0  503    0 -0.00000000000E+00  0.00000000000E+00  0.39783664815E+02  0.39783664815E+02  0.00000000000E+00 0.  1.
         21   -1    0    0  501  502  0.00000000000E+00 -0.00000000000E+00 -0.12170388330E+03  0.12170388330E+03  0.00000000000E+00 0. -1.
         21    1    1    2  503  502 -0.25482830351E+02 -0.56818272303E+02 -0.76990878616E+02  0.99021644605E+02  0.00000000000E+00 0. -1.
          2    1    1    2  501    0  0.25482830351E+02  0.56818272303E+02 -0.49293398732E+01  0.62465903514E+02  0.00000000000E+00 0.  1.
<mgrwt>
<rscale>  2 0.62271107E+02</rscale>
<asrwt>0</asrwt>
<pdfrwt beam="2">  1       21 0.18723674E-01 0.62271107E+02</pdfrwt>
<pdfrwt beam="1">  1        2 0.61205638E-02 0.62271107E+02</pdfrwt>
<totfact> 0.34476331E+05</totfact>
</mgrwt>
</event>
<event>
 4    1  0.2177230E+006  0.2164855E+02  0.7546771E-02  0.1714402E+00
         -1   -1    0    0    0  501 -0.00000000000E+00  0.00000000000E+00  0.69904290036E+01  0.69904290036E+01  0.00000000000E+00 0. -1.
         21   -1    0    0  501  502  0.00000000000E+00 -0.00000000000E+00 -0.92587348960E+02  0.92587348960E+02  0.00000000000E+00 0.  1.
         21    1    1    2  503  502 -0.12557832542E+02  0.17634068788E+02 -0.68950391861E+02  0.72269053390E+02  0.00000000000E+00 0.  1.
         -1    1    1    2    0  503  0.12557832542E+02 -0.17634068788E+02 -0.16646528096E+02  0.27308724573E+02  0.00000000000E+00 0. -1.
<mgrwt>
<rscale>  2 0.21648546E+02</rscale>
<asrwt>0</asrwt>
<pdfrwt beam="2">  1       21 0.14244207E-01 0.21648546E+02</pdfrwt>
<pdfrwt beam="1">  1       -1 0.10754507E-02 0.21648546E+02</pdfrwt>
<totfact> 0.40640189E+06</totfact>
</mgrwt>
</event>
<event>
 4    1  0.2177230E+006  0.2166676E+02  0.7546771E-02  0.1714080E+00
         21   -1    0    0  503  502  0.00000000000E+00  0.00000000000E+00  0.76530267215E+01  0.76530267215E+01  0.00000000000E+00 0.  1.
         -1   -1    0    0    0  501 -0.00000000000E+00 -0.00000000000E+00 -0.98383697189E+02  0.98383697189E+02  0.00000000000E+00 0. -1.
         21    1    1    2  503  501 -0.60822071066E+01 -0.20795557425E+02 -0.12833177754E+02  0.25182114747E+02  0.00000000000E+00 0.  1.
         -1    1    1    2    0  502  0.60822071066E+01  0.20795557425E+02 -0.77897492714E+02  0.80854609164E+02  0.00000000000E+00 0. -1.
<mgrwt>
<rscale>  2 0.21666759E+02</rscale>
<asrwt>0</asrwt>
<pdfrwt beam="1">  1       21 0.11773888E-02 0.21666759E+02</pdfrwt>
<pdfrwt beam="2">  1       -1 0.15135953E-01 0.21666759E+02</pdfrwt>
<totfact> 0.52743048E+06</totfact>
</mgrwt>
</event>
<event>
 4    1  0.2177230E+006  0.2206406E+02  0.7546771E-02  0.1707146E+00
          1   -1    0    0  503    0 -0.00000000000E+00  0.00000000000E+00  0.31371746436E+03  0.31371746436E+03  0.00000000000E+00 0. -1.
         21   -1    0    0  501  502  0.00000000000E+00 -0.00000000000E+00 -0.42425071063E+01  0.42425071063E+01  0.00000000000E+00 0. -1.
         21    1    1    2  503  502 -0.11814592948E+02 -0.18634325862E+02  0.28128233254E+02  0.35749408567E+02  0.00000000000E+00 0. -1.
          1    1    1    2  501    0  0.11814592948E+02  0.18634325862E+02  0.28134672400E+03  0.28221056290E+03  0.00000000000E+00 0. -1.
<mgrwt>
<rscale>  2 0.22064059E+02</rscale>
<asrwt>0</asrwt>
<pdfrwt beam="2">  1       21 0.65269365E-03 0.22064059E+02</pdfrwt>
<pdfrwt beam="1">  1        1 0.48264207E-01 0.22064059E+02</pdfrwt>
<totfact> 0.45838450E+06</totfact>
</mgrwt>
</event>
<event>
 4    1  0.2177230E+006  0.2008544E+02  0.7546771E-02  0.1743634E+00
         21   -1    0    0  501  502  0.00000000000E+00  0.00000000000E+00  0.63279474440E+03  0.63279474440E+03  0.00000000000E+00 0.  1.
          2   -1    0    0  503    0 -0.00000000000E+00 -0.00000000000E+00 -0.14262183482E+01  0.14262183482E+01  0.00000000000E+00 0.  1.
         21    1    1    2  503  502 -0.20027545059E+02 -0.15238870239E+01  0.55149884961E+03  0.55186448147E+03  0.00000000000E+00 0.  1.
          2    1    1    2  501    0  0.20027545059E+02  0.15238870239E+01  0.79869676443E+02  0.82356481275E+02  0.00000000000E+00 0.  1.
<mgrwt>
<rscale>  2 0.20085437E+02</rscale>
<asrwt>0</asrwt>
<pdfrwt beam="1">  1       21 0.97352814E-01 0.20085437E+02</pdfrwt>
<pdfrwt beam="2">  1        2 0.21941871E-03 0.20085437E+02</pdfrwt>
<totfact> 0.90093216E+05</totfact>
</mgrwt>
</event>
<event>
 4    1  0.2177230E+006  0.2978280E+02  0.7546771E-02  0.1600502E+00
          1   -1    0    0  503    0 -0.00000000000E+00  0.00000000000E+00  0.68764178923E+03  0.68764178923E+03  0.00000000000E+00 0. -1.
         21   -1    0    0  501  502  0.00000000000E+00 -0.00000000000E+00 -0.35987087775E+01  0.35987087775E+01  0.00000000000E+00 0. -1.
         21    1    1    2  503  502  0.22171915535E+02 -0.19885210740E+02  0.65189589972E+02  0.71670761718E+02  0.00000000000E+00 0. -1.
          1    1    1    2  501    0 -0.22171915535E+02  0.19885210740E+02  0.61885349048E+03  0.61956973629E+03  0.00000000000E+00 0. -1.
<mgrwt>
<rscale>  2 0.29782805E+02</rscale>
<asrwt>0</asrwt>
<pdfrwt beam="2">  1       21 0.55364805E-03 0.29782805E+02</pdfrwt>
<pdfrwt beam="1">  1        1 0.10579094E+00 0.29782805E+02</pdfrwt>
<totfact> 0.24205788E+06</totfact>
</mgrwt>
</event>
<event>
 4    1  0.2177230E+006  0.3810083E+02  0.7546771E-02  0.1522671E+00
         21   -1    0    0  501  502  0.00000000000E+00  0.00000000000E+00  0.21707956508E+01  0.21707956508E+01  0.00000000000E+00 0.  1.
          2   -1    0    0  503    0 -0.00000000000E+00 -0.00000000000E+00 -0.86238845325E+03  0.86238845325E+03  0.00000000000E+00 0.  1.
         21    1    1    2  503  502 -0.13818072623E+02 -0.35506823227E+02 -0.22526030200E+03  0.22845979358E+03  0.00000000000E+00 0.  1.
          2    1    1    2  501    0  0.13818072623E+02  0.35506823227E+02 -0.63495735561E+03  0.63609945532E+03  0.00000000000E+00 0.  1.
<mgrwt>
<rscale>  2 0.38100835E+02</rscale>
<asrwt>0</asrwt>
<pdfrwt beam="1">  1       21 0.33396846E-03 0.38100835E+02</pdfrwt>
<pdfrwt beam="2">  1        2 0.13267519E+00 0.38100835E+02</pdfrwt>
<totfact> 0.68169044E+06</totfact>
</mgrwt>
</event>
<event>
 4    1  0.2177230E+006  0.2105417E+02  0.7546771E-02  0.1725142E+00
         -2   -1    0    0    0  501 -0.00000000000E+00  0.00000000000E+00  0.18833999802E+03  0.18833999802E+03  0.00000000000E+00 0. -1.
         21   -1    0    0  501  502  0.00000000000E+00 -0.00000000000E+00 -0.49799453963E+01  0.49799453963E+01  0.00000000000E+00 0.  1.
         21    1    1    2  503  502  0.55989494319E+01 -0.20296058061E+02  0.21484445490E+02  0.30080884388E+02  0.00000000000E+00 0.  1.
         -2    1    1    2    0  503 -0.55989494319E+01  0.20296058061E+02  0.16187560714E+03  0.16323905903E+03  0.00000000000E+00 0. -1.
<mgrwt>
<rscale>  2 0.21054173E+02</rscale>
<asrwt>0</asrwt>
<pdfrwt beam="2">  1       21 0.76614559E-03 0.21054173E+02</pdfrwt>
<pdfrwt beam="1">  1       -2 0.28975379E-01 0.21054173E+02</pdfrwt>
<totfact> 0.32315352E+06</totfact>
</mgrwt>
</event>
<event>
 4    1  0.2177230E+006  0.2105519E+02  0.7546771E-02  0.1725124E+00
          2   -1    0    0  503    0 -0.00000000000E+00  0.00000000000E+00  0.27473738254E+03  0.27473738254E+03  0.00000000000E+00 0. -1.
         21   -1    0    0  501  502  0.00000000000E+00 -0.00000000000E+00 -0.25853940046E+01  0.25853940046E+01  0.00000000000E+00 0. -1.
         21    1    1    2  503  502  0.15559058133E+02 -0.14185789026E+02  0.51064922200E+02  0.55235379781E+02  0.00000000000E+00 0. -1.
          2    1    1    2  501    0 -0.15559058133E+02  0.14185789026E+02  0.22108706633E+03  0.22208739676E+03  0.00000000000E+00 0. -1.
<mgrwt>
<rscale>  2 0.21055187E+02</rscale>
<asrwt>0</asrwt>
<pdfrwt beam="2">  1       21 0.39775314E-03 0.21055187E+02</pdfrwt>
<pdfrwt beam="1">  1        2 0.42267267E-01 0.21055187E+02</pdfrwt>
<totfact> 0.15013888E+07</totfact>
</mgrwt>
</event>
<event>
 4    1  0.2177230E+006  0.3245975E+02  0.7546771E-02  0.1572390E+00
         21   -1    0    0  503  502  0.00000000000E+00  0.00000000000E+00  0.63862809350E+01  0.63862809350E+01  0.00000000000E+00 0.  1.
         -2   -1    0    0    0  501 -0.00000000000E+00 -0.00000000000E+00 -0.18281081174E+03  0.18281081174E+03  0.00000000000E+00 0. -1.
         21    1    1    2  503  501 -0.30107019400E+02 -0.12132703052E+02 -0.58671714127E+02  0.67052256779E+02  0.00000000000E+00 0.  1.
         -2    1    1    2    0  502  0.30107019400E+02  0.12132703052E+02 -0.11775281667E+03  0.12214483589E+03  0.00000000000E+00 0. -1.
<mgrwt>
<rscale>  2 0.32459746E+02</rscale>
<asrwt>0</asrwt>
<pdfrwt beam="1">  1       21 0.98250480E-03 0.32459746E+02</pdfrwt>
<pdfrwt beam="2">  1       -2 0.28124739E-01 0.32459746E+02</pdfrwt>
<totfact> 0.26239185E+06</totfact>
</mgrwt>
</event>
<event>
 4    1  0.2177230E+006  0.2851077E+02  0.7546771E-02  0.1615159E+00
         21   -1    0    0  503  502  0.00000000000E+00  0.00000000000E+00  0.20627284787E+02  0.20627284787E+02  0.00000000000E+00 0. -1.
          1   -1    0    0  502    0 -0.00000000000E+00 -0.00000000000E+00 -0.19251583609E+04  0.19251583609E+04  0.00000000000E+00 0. -1.
         21    1    1    2  503  501  0.20783383941E+02 -0.19517040409E+02  0.10618438061E+02  0.30423923830E+02  0.00000000000E+00 0. -1.
          1    1    1    2  501    0 -0.20783383941E+02  0.19517040409E+02 -0.19151495142E+04  0.19153617219E+04  0.00000000000E+00 0. -1.
<mgrwt>
<rscale>  2 0.28510768E+02</rscale>
<asrwt>0</asrwt>
<pdfrwt beam="1">  1       21 0.31734282E-02 0.28510768E+02</pdfrwt>
<pdfrwt beam="2">  1        1 0.29617823E+00 0.28510768E+02</pdfrwt>
<totfact> 0.26203642E+04</totfact>
</mgrwt>
</event>
<event>
 4    1  0.2177230E+006  0.2135320E+02  0.7546771E-02  0.1719684E+00
         21   -1    0    0  501  502  0.00000000000E+00  0.00000000000E+00  0.93463888704E+02  0.93463888704E+02  0.00000000000E+00 0.  1.
          1   -1    0    0  503    0 -0.00000000000E+00 -0.00000000000E+00 -0.28761401210E+02  0.28761401210E+02  0.00000000000E+00 0.  1.
         21    1    1    2  503  502 -0.20630821254E+02  0.55071036302E+01  0.88040324520E+02  0.90592812726E+02  0.00000000000E+00 0.  1.
          1    1    1    2  501    0  0.20630821254E+02 -0.55071036302E+01 -0.23337837026E+02  0.31632477188E+02  0.00000000000E+00 0.  1.
<mgrwt>
<rscale>  2 0.21353196E+02</rscale>
<asrwt>0</asrwt>
<pdfrwt beam="1">  1       21 0.14379060E-01 0.21353196E+02</pdfrwt>
<pdfrwt beam="2">  1        1 0.44248310E-02 0.21353196E+02</pdfrwt>
<totfact> 0.65084359E+05</totfact>
</mgrwt>
</event>
<event>
 4    1  0.2177230E+006  0.2342144E+02  0.7546771E-02  0.1684768E+00
         21   -1    0    0  501  502  0.00000000000E+00  0.00000000000E+00  0.12593242274E+03  0.12593242274E+03  0.00000000000E+00 0.  1.
         -2   -1    0    0    0  501 -0.00000000000E+00 -0.00000000000E+00 -0.76445654967E+01  0.76445654967E+01  0.00000000000E+00 0. -1.
         21    1    1    2  503  502 -0.23318594949E+02  0.21925014967E+01  0.10294929234E+03  0.10557992578E+03  0.00000000000E+00 0.  1.
         -2    1    1    2    0  503  0.23318594949E+02 -0.21925014967E+01  0.15338564903E+02  0.27997062462E+02  0.00000000000E+00 0. -1.
<mgrwt>
<rscale>  2 0.23421442E+02</rscale>
<asrwt>0</asrwt>
<pdfrwt beam="1">  1       21 0.19374217E-01 0.23421442E+02</pdfrwt>
<pdfrwt beam="2">  1       -2 0.11760871E-02 0.23421442E+02</pdfrwt>
<totfact> 0.21588801E+06</totfact>
</mgrwt>
</event>
<event>
 4    1  0.2177230E+006  0.2626648E+02  0.7546771E-02  0.1643450E+00
         21   -1    0    0  501  502  0.00000000000E+00  0.00000000000E+00  0.11845296317E+01  0.11845296317E+01  0.00000000000E+00 0.  1.
          2   -1    0    0  503    0 -0.00000000000E+00 -0.00000000000E+00 -0.18166008729E+04  0.18166008729E+04  0.00000000000E+00 0.  1.
         21    1    1    2  503  502 -0.21097480132E+02 -0.15646866334E+02 -0.15856097145E+03  0.16072183971E+03  0.00000000000E+00 0.  1.
          2    1    1    2  501    0  0.21097480132E+02  0.15646866334E+02 -0.16568553718E+04  0.16570635628E+04  0.00000000000E+00 0.  1.
<mgrwt>
<rscale>  2 0.26266482E+02</rscale>
<asrwt>0</asrwt>
<pdfrwt beam="1">  1       21 0.18223582E-03 0.26266482E+02</pdfrwt>
<pdfrwt beam="2">  1        2 0.27947631E+00 0.26266482E+02</pdfrwt>
<totfact> 0.50764810E+06</totfact>
</mgrwt>
</event>
<event>
 4    1  0.2177230E+006  0.2201389E+02  0.7546771E-02  0.1708012E+00
          1   -1    0    0  502    0 -0.00000000000E+00  0.00000000000E+00  0.63088129910E+03  0.63088129910E+03  0.00000000000E+00 0. -1.
         21   -1    0    0  503  502  0.00000000000E+00 -0.00000000000E+00 -0.26154388375E+01  0.26154388375E+01  0.00000000000E+00 0. -1.
         21    1    1    2  503  501 -0.72252353765E+01  0.20794401216E+02  0.47932001621E+02  0.52745501491E+02  0.00000000000E+00 0. -1.
          1    1    1    2  501    0  0.72252353765E+01 -0.20794401216E+02  0.58033385864E+03  0.58075123644E+03  0.00000000000E+00 0. -1.
<mgrwt>
<rscale>  2 0.22013885E+02</rscale>
<asrwt>0</asrwt>
<pdfrwt beam="2">  1       21 0.40237571E-03 0.22013885E+02</pdfrwt>
<pdfrwt beam="1">  1        1 0.97058540E-01 0.22013885E+02</pdfrwt>
<totfact> 0.40679758E+06</totfact>
</mgrwt>
</event>
<event>
 4    1  0.2177230E+006  0.3633234E+02  0.7546771E-02  0.1537078E+00
         21   -1    0    0  501  502  0.00000000000E+00  0.00000000000E+00  0.23191214297E+01  0.23191214297E+01  0.00000000000E+00 0. -1.
          1   -1    0    0  503    0 -0.00000000000E+00 -0.00000000000E+00 -0.74392229222E+03  0.74392229222E+03  0.00000000000E+00 0.  1.
         21    1    1    2  503  502 -0.34076868416E+02  0.12601823903E+02 -0.18997495103E+03  0.19341799541E+03  0.00000000000E+00 0. -1.
          1    1    1    2  501    0  0.34076868416E+02 -0.12601823903E+02 -0.55162821975E+03  0.55282341824E+03  0.00000000000E+00 0.  1.
<mgrwt>
<rscale>  2 0.36332340E+02</rscale>
<asrwt>0</asrwt>
<pdfrwt beam="1">  1       21 0.35678738E-03 0.36332340E+02</pdfrwt>
<pdfrwt beam="2">  1        1 0.11444975E+00 0.36332340E+02</pdfrwt>
<totfact> 0.43412425E+06</totfact>
</mgrwt>
</event>
<event>
 4    1  0.2177230E+006  0.3271002E+02  0.7546771E-02  0.1569930E+00
          2   -1    0    0  503    0 -0.00000000000E+00  0.00000000000E+00  0.13816229728E+04  0.13816229728E+04  0.00000000000E+00 0.  1.
         21   -1    0    0  501  502  0.00000000000E+00 -0.00000000000E+00 -0.11065985626E+01  0.11065985626E+01  0.00000000000E+00 0. -1.
         21    1    1    2  503  502 -0.57915159575E+01  0.32193221288E+02  0.31146395658E+03  0.31317685324E+03  0.00000000000E+00 0. -1.
          2    1    1    2  501    0  0.57915159575E+01 -0.32193221288E+02  0.10690524177E+04  0.10695527181E+04  0.00000000000E+00 0.  1.
<mgrwt>
<rscale>  2 0.32710016E+02</rscale>
<asrwt>0</asrwt>
<pdfrwt beam="2">  1       21 0.17024704E-03 0.32710016E+02</pdfrwt>
<pdfrwt beam="1">  1        2 0.21255600E+00 0.32710016E+02</pdfrwt>
<totfact> 0.93986149E+06</totfact>
</mgrwt>
</event>
<event>
 4    1  0.2177230E+006  0.2469768E+02  0.7546771E-02  0.1665383E+00
         21   -1    0    0  503  502  0.00000000000E+00  0.00000000000E+00  0.18246147709E+03  0.18246147709E+03  0.00000000000E+00 0. -1.
          3   -1    0    0  502    0 -0.00000000000E+00 -0.00000000000E+00 -0.36761524890E+01  0.36761524890E+01  0.00000000000E+00 0.  1.
         21    1    1    2  503  501 -0.18891109112E+02  0.15909156254E+02  0.11740862806E+03  0.11997816968E+03  0.00000000000E+00 0. -1.
          3    1    1    2  501    0  0.18891109112E+02 -0.15909156254E+02  0.61376696537E+02  0.66159459898E+02  0.00000000000E+00 0.  1.
<mgrwt>
<rscale>  2 0.24697677E+02</rscale>
<asrwt>0</asrwt>
<pdfrwt beam="1">  1       21 0.28070989E-01 0.24697677E+02</pdfrwt>
<pdfrwt beam="2">  1        3 0.56556206E-03 0.24697677E+02</pdfrwt>
<totfact> 0.23508696E+06</totfact>
</mgrwt>
</event>
<event>
 4    1  0.2177230E+006  0.2320478E+02  0.7546771E-02  0.1688212E+00
         -2   -1    0    0    0  501 -0.00000000000E+00  0.00000000000E+00  0.27746306738E+01  0.27746306738E+01  0.00000000000E+00 0. -1.
         21   -1    0    0  503  502  0.00000000000E+00 -0.00000000000E+00 -0.24773570571E+03  0.24773570571E+03  0.00000000000E+00 0. -1.
         21    1    1    2  503  501  0.11407792244E+02  0.20207025018E+02 -0.18078016797E+03  0.18226335539E+03  0.00000000000E+00 0. -1.
         -2    1    1    2    0  502 -0.11407792244E+02 -0.20207025018E+02 -0.64180907059E+02  0.68246980994E+02  0.00000000000E+00 0. -1.
<mgrwt>
<rscale>  2 0.23204775E+02</rscale>
<asrwt>0</asrwt>
<pdfrwt beam="2">  1       21 0.38113185E-01 0.23204775E+02</pdfrwt>
<pdfrwt beam="1">  1       -2 0.42686627E-03 0.23204775E+02</pdfrwt>
<totfact> 0.24899665E+06</totfact>
</mgrwt>
</event>
<event>
 4    1  0.2177230E+006  0.2263289E+02  0.7546771E-02  0.1697531E+00
         21   -1    0    0  501  502  0.00000000000E+00  0.00000000000E+00  0.21752619172E+02  0.21752619172E+02  0.00000000000E+00 0. -1.
          3   -1    0    0  503    0 -0.00000000000E+00 -0.00000000000E+00 -0.27018332261E+02  0.27018332261E+02  0.00000000000E+00 0.  1.
         21    1    1    2  503  502  0.18229565708E+02 -0.13413824449E+02  0.61056731553E+01  0.23441992170E+02  0.00000000000E+00 0. -1.
          3    1    1    2  501    0 -0.18229565708E+02  0.13413824449E+02 -0.11371386244E+02  0.25328959263E+02  0.00000000000E+00 0.  1.
<mgrwt>
<rscale>  2 0.22632891E+02</rscale>
<asrwt>0</asrwt>
<pdfrwt beam="1">  1       21 0.33465568E-02 0.22632891E+02</pdfrwt>
<pdfrwt beam="2">  1        3 0.41566665E-02 0.22632891E+02</pdfrwt>
<totfact> 0.43628224E+06</totfact>
</mgrwt>
</event>
<event>
 4    1  0.2177230E+006  0.2947589E+02  0.7546771E-02  0.1603955E+00
          2   -1    0    0  502    0 -0.00000000000E+00  0.00000000000E+00  0.73642611737E+03  0.73642611737E+03  0.00000000000E+00 0.  1.
         21   -1    0    0  503  502  0.00000000000E+00 -0.00000000000E+00 -0.34163170295E+01  0.34163170295E+01  0.00000000000E+00 0.  1.
         21    1    1    2  503  501  0.29124585299E+02  0.45372220643E+01  0.67197623236E+02  0.73378119500E+02  0.00000000000E+00 0.  1.
          2    1    1    2  501    0 -0.29124585299E+02 -0.45372220643E+01  0.66581217711E+03  0.66646431490E+03  0.00000000000E+00 0.  1.
<mgrwt>
<rscale>  2 0.29475886E+02</rscale>
<asrwt>0</asrwt>
<pdfrwt beam="2">  1       21 0.52558782E-03 0.29475886E+02</pdfrwt>
<pdfrwt beam="1">  1        2 0.11329620E+00 0.29475886E+02</pdfrwt>
<totfact> 0.39707737E+06</totfact>
</mgrwt>
</event>
<event>
 4    1  0.2177230E+006  0.2184810E+02  0.7546771E-02  0.1710892E+00
          2   -1    0    0  503    0 -0.00000000000E+00  0.00000000000E+00  0.11098544759E+04  0.11098544759E+04  0.00000000000E+00 0.  1.
         21   -1    0    0  501  502  0.00000000000E+00 -0.00000000000E+00 -0.67635404305E+01  0.67635404305E+01  0.00000000000E+00 0. -1.
         21    1    1    2  503  502  0.17891920461E+02 -0.12538694978E+02  0.11279384427E+02  0.24587887314E+02  0.00000000000E+00 0. -1.
          2    1    1    2  501    0 -0.17891920461E+02  0.12538694978E+02  0.10918115510E+04  0.10920301290E+04  0.00000000000E+00 0.  1.
<mgrwt>
<rscale>  2 0.21848105E+02</rscale>
<asrwt>0</asrwt>
<pdfrwt beam="2">  1       21 0.10405456E-02 0.21848105E+02</pdfrwt>
<pdfrwt beam="1">  1        2 0.17074670E+00 0.21848105E+02</pdfrwt>
<totfact> 0.82675155E+05</totfact>
</mgrwt>
</event>
<event>
 4    1  0.2177230E+006  0.2740261E+02  0.7546771E-02  0.1628712E+00
         21   -1    0    0  501  502  0.00000000000E+00  0.00000000000E+00  0.71536288478E+02  0.71536288478E+02  0.00000000000E+00 0.  1.
         -1   -1    0    0    0  501 -0.00000000000E+00 -0.00000000000E+00 -0.43199712516E+02  0.43199712516E+02  0.00000000000E+00 0.  1.
         21    1    1    2  503  502 -0.69885601365E+00  0.27393695743E+02  0.64082293419E+02  0.69695360649E+02  0.00000000000E+00 0.  1.
         -1    1    1    2    0  503  0.69885601365E+00 -0.27393695743E+02 -0.35745717457E+02  0.45040640345E+02  0.00000000000E+00 0.  1.
<mgrwt>
<rscale>  2 0.27402609E+02</rscale>
<asrwt>0</asrwt>
<pdfrwt beam="1">  1       21 0.11005583E-01 0.27402609E+02</pdfrwt>
<pdfrwt beam="2">  1       -1 0.66461096E-02 0.27402609E+02</pdfrwt>
<totfact> 0.54035816E+05</totfact>
</mgrwt>
</event>
<event>
 4    1  0.2177230E+006  0.2281851E+02  0.7546771E-02  0.1694469E+00
         21   -1    0    0  503  502  0.00000000000E+00  0.00000000000E+00  0.71225970085E+01  0.71225970085E+01  0.00000000000E+00 0.  1.
          2   -1    0    0  502    0 -0.00000000000E+00 -0.00000000000E+00 -0.78432756286E+03  0.78432756286E+03  0.00000000000E+00 0.  1.
         21    1    1    2  503  501 -0.22258571156E+02  0.50240034371E+01 -0.11770157182E+02  0.25675303319E+02  0.00000000000E+00 0.  1.
          2    1    1    2  501    0  0.22258571156E+02 -0.50240034371E+01 -0.76543480867E+03  0.76577485655E+03  0.00000000000E+00 0.  1.
<mgrwt>
<rscale>  2 0.22818514E+02</rscale>
<asrwt>0</asrwt>
<pdfrwt beam="1">  1       21 0.10957844E-02 0.22818514E+02</pdfrwt>
<pdfrwt beam="2">  1        2 0.12066575E+00 0.22818514E+02</pdfrwt>
<totfact> 0.11728227E+06</totfact>
</mgrwt>
</event>
<event>
 4    1  0.2177230E+006  0.2621794E+02  0.7546771E-02  0.1644100E+00
         21   -1    0    0  503  502  0.00000000000E+00  0.00000000000E+00  0.47558533075E+00  0.47558533075E+00  0.00000000000E+00 0.  1.
          1   -1    0    0  502    0 -0.00000000000E+00 -0.00000000000E+00 -0.16238241674E+04  0.16238241674E+04  0.00000000000E+00 0.  1.
         21    1    1    2  503  501 -0.13874439817E+02  0.22245908744E+02 -0.54241446563E+03  0.54304772632E+03  0.00000000000E+00 0.  1.
          1    1    1    2  501    0  0.13874439817E+02 -0.22245908744E+02 -0.10809341164E+04  0.10812520264E+04  0.00000000000E+00 0.  1.
<mgrwt>
<rscale>  2 0.26217943E+02</rscale>
<asrwt>0</asrwt>
<pdfrwt beam="1">  1       21 0.73166248E-04 0.26217943E+02</pdfrwt>
<pdfrwt beam="2">  1        1 0.24982158E+00 0.26217943E+02</pdfrwt>
<totfact> 0.10659561E+07</totfact>
</mgrwt>
</event>
<event>
 4    1  0.2177230E+006  0.3142473E+02  0.7546771E-02  0.1582854E+00
          2   -1    0    0  502    0 -0.00000000000E+00  0.00000000000E+00  0.23843207849E+03  0.23843207849E+03  0.00000000000E+00 0.  1.
         21   -1    0    0  503  502  0.00000000000E+00 -0.00000000000E+00 -0.12250115510E+02  0.12250115510E+02  0.00000000000E+00 0.  1.
         21    1    1    2  503  501 -0.14878386311E+02  0.27679362659E+02  0.11116508497E+02  0.33333020529E+02  0.00000000000E+00 0.  1.
          2    1    1    2  501    0  0.14878386311E+02 -0.27679362659E+02  0.21506545448E+03  0.21734917347E+03  0.00000000000E+00 0.  1.
<mgrwt>
<rscale>  2 0.31424727E+02</rscale>
<asrwt>0</asrwt>
<pdfrwt beam="2">  1       21 0.18846333E-02 0.31424727E+02</pdfrwt>
<pdfrwt beam="1">  1        2 0.36681855E-01 0.31424727E+02</pdfrwt>
<totfact> 0.18425278E+06</totfact>
</mgrwt>
</event>
