<event>
 4    1  0.4353697E+006  0.2323420E+02  0.7546771E-02  0.1687742E+00
         21   -1    0    0  503  501  0.00000000000E+00  0.00000000000E+00  0.11587093448E+02  0.11587093448E+02  0.00000000000E+00 0. -1.
         21   -1    0    0  504  502 -0.00000000000E+00 -0.00000000000E+00 -0.97128258127E+02  0.97128258127E+02  0.00000000000E+00 0. -1.
         21    1    1    2  503  502  0.22014434743E+02 -0.74291776026E+01 -0.81981197166E+02  0.85210003554E+02  0.00000000000E+00 0. -1.
         21    1    1    2  504  501 -0.22014434743E+02  0.74291776026E+01 -0.35599675136E+01  0.23505348021E+02  0.00000000000E+00 0. -1.
<mgrwt>
<rscale>  2 0.23234199E+02</rscale>
<asrwt>0</asrwt>
<pdfrwt beam="1">  1       21 0.17826298E-02 0.23234199E+02</pdfrwt>
<pdfrwt beam="2">  1       21 0.14942808E-01 0.23234199E+02</pdfrwt>
<totfact> 0.42503456E+07</totfact>
</mgrwt>
</event>
<event>
 4    1  0.4353697E+006  0.2256512E+02  0.7546771E-02  0.1698658E+00
         21   -1    0    0  503  501  0.00000000000E+00  0.00000000000E+00  0.40132953177E+00  0.40132953177E+00  0.00000000000E+00 0. -1.
         21   -1    0    0  504  502 -0.00000000000E+00 -0.00000000000E+00 -0.14344384414E+04  0.14344384414E+04  0.00000000000E+00 0. -1.
         21    1    1    2  503  502  0.22532092827E+00  0.22563992584E+02 -0.96084797884E+03  0.96111290855E+03  0.00000000000E+00 0. -1.
         21    1    1    2  504  501 -0.22532092827E+00 -0.22563992584E+02 -0.47318913305E+03  0.47372686241E+03  0.00000000000E+00 0. -1.
<mgrwt>
<rscale>  2 0.22565118E+02</rscale>
<asrwt>0</asrwt>
<pdfrwt beam="1">  1       21 0.61744008E-04 0.22565118E+02</pdfrwt>
<pdfrwt beam="2">  1       21 0.22067925E+00 0.22565118E+02</pdfrwt>
<totfact> 0.23732594E+07</totfact>
</mgrwt>
</event>
<event>
 4    1  0.4353697E+006  0.2463875E+02  0.7546771E-02  0.1666246E+00
         21   -1    0    0  504  501  0.00000000000E+00  0.00000000000E+00  0.58826969377E+02  0.58826969377E+02  0.00000000000E+00 0. -1.
         21   -1    0    0  503  502 -0.00000000000E+00 -0.00000000000E+00 -0.28094921477E+02  0.28094921477E+02  0.00000000000E+00 0. -1.
         21    1    1    2  503  501  0.24237632753E+02  0.44277452575E+01  0.49935644937E+02  0.55683358419E+02  0.00000000000E+00 0. -1.
         21    1    1    2  504  502 -0.24237632753E+02 -0.44277452575E+01 -0.19203597037E+02  0.31238532435E+02  0.00000000000E+00 0. -1.
<mgrwt>
<rscale>  2 0.24638745E+02</rscale>
<asrwt>0</asrwt>
<pdfrwt beam="1">  1       21 0.90503029E-02 0.24638745E+02</pdfrwt>
<pdfrwt beam="2">  1       21 0.43222956E-02 0.24638745E+02</pdfrwt>
<totfact> 0.25159675E+07</totfact>
</mgrwt>
</event>
<event>
 4    1  0.4353697E+006  0.2177170E+02  0.7546771E-02  0.1712230E+00
         21   -1    0    0  504  501  0.00000000000E+00  0.00000000000E+00  0.45844336280E+01  0.45844336280E+01  0.00000000000E+00 0. -1.
         21   -1    0    0  501  502 -0.00000000000E+00 -0.00000000000E+00 -0.12822951417E+04  0.12822951417E+04  0.00000000000E+00 0. -1.
         21    1    1    2  503  502 -0.15374249898E+02  0.15415556131E+02 -0.12558088754E+04  0.12559975869E+04  0.00000000000E+00 0. -1.
         21    1    1    2  504  503  0.15374249898E+02 -0.15415556131E+02 -0.21901832669E+02  0.30881988360E+02  0.00000000000E+00 0. -1.
<mgrwt>
<rscale>  2 0.21771700E+02</rscale>
<asrwt>0</asrwt>
<pdfrwt beam="1">  1       21 0.70529855E-03 0.21771700E+02</pdfrwt>
<pdfrwt beam="2">  1       21 0.19727588E+00 0.21771700E+02</pdfrwt>
<totfact> 0.93854711E+05</totfact>
</mgrwt>
</event>
<event>
 4    1  0.4353697E+006  0.2291067E+02  0.7546771E-02  0.1692962E+00
         21   -1    0    0  503  501  0.00000000000E+00  0.00000000000E+00  0.22403471353E+02  0.22403471353E+02  0.00000000000E+00 0.  1.
         21   -1    0    0  504  502 -0.00000000000E+00 -0.00000000000E+00 -0.14562756656E+03  0.14562756656E+03  0.00000000000E+00 0.  1.
         21    1    1    2  503  502  0.22857865909E+02 -0.15545511343E+01 -0.13857295162E+03  0.14045412626E+03  0.00000000000E+00 0.  1.
         21    1    1    2  504  501 -0.22857865909E+02  0.15545511343E+01  0.15348856412E+02  0.27576911652E+02  0.00000000000E+00 0.  1.
<mgrwt>
<rscale>  2 0.22910667E+02</rscale>
<asrwt>0</asrwt>
<pdfrwt beam="1">  1       21 0.34466879E-02 0.22910667E+02</pdfrwt>
<pdfrwt beam="2">  1       21 0.22404241E-01 0.22910667E+02</pdfrwt>
<totfact> 0.75795966E+06</totfact>
</mgrwt>
</event>
<event>
 4    1  0.4353697E+006  0.2942823E+02  0.7546771E-02  0.1604496E+00
         21   -1    0    0  504  501  0.00000000000E+00  0.00000000000E+00  0.53052940920E+02  0.53052940920E+02  0.00000000000E+00 0. -1.
         21   -1    0    0  503  502 -0.00000000000E+00 -0.00000000000E+00 -0.21281640667E+02  0.21281640667E+02  0.00000000000E+00 0.  1.
         21    1    1    2  503  501  0.24815168596E+02  0.15818596965E+02 -0.20537847814E+01  0.29499807361E+02  0.00000000000E+00 0.  1.
         21    1    1    2  504  502 -0.24815168596E+02 -0.15818596965E+02  0.33825085034E+02  0.44834774227E+02  0.00000000000E+00 0. -1.
<mgrwt>
<rscale>  2 0.29428228E+02</rscale>
<asrwt>0</asrwt>
<pdfrwt beam="1">  1       21 0.81619909E-02 0.29428228E+02</pdfrwt>
<pdfrwt beam="2">  1       21 0.32740986E-02 0.29428228E+02</pdfrwt>
<totfact> 0.48144795E+07</totfact>
</mgrwt>
</event>
<event>
 4    1  0.4353697E+006  0.2892845E+02  0.7546771E-02  0.1610244E+00
         21   -1    0    0  502  501  0.00000000000E+00  0.00000000000E+00  0.22986855188E+03  0.22986855188E+03  0.00000000000E+00 0. -1.
         21   -1    0    0  503  502 -0.00000000000E+00 -0.00000000000E+00 -0.69394294678E+01  0.69394294678E+01  0.00000000000E+00 0. -1.
         21    1    1    2  503  504 -0.24715685760E+02 -0.15032968506E+02  0.29827833509E+02  0.41551834094E+02  0.00000000000E+00 0. -1.
         21    1    1    2  504  501  0.24715685760E+02  0.15032968506E+02  0.19310128891E+03  0.19525614726E+03  0.00000000000E+00 0. -1.
<mgrwt>
<rscale>  2 0.28928451E+02</rscale>
<asrwt>0</asrwt>
<pdfrwt beam="1">  1       21 0.35364387E-01 0.28928451E+02</pdfrwt>
<pdfrwt beam="2">  1       21 0.10676047E-02 0.28928451E+02</pdfrwt>
<totfact> 0.20976465E+07</totfact>
</mgrwt>
</event>
<event>
 4    1  0.4353697E+006  0.2034572E+02  0.7546771E-02  0.1738539E+00
         21   -1    0    0  504  501  0.00000000000E+00  0.00000000000E+00  0.59344461222E+02  0.59344461222E+02  0.00000000000E+00 0.  1.
         21   -1    0    0  501  502 -0.00000000000E+00 -0.00000000000E+00 -0.11211039939E+02  0.11211039939E+02  0.00000000000E+00 0.  1.
         21    1    1    2  503  502 -0.10254728096E+02 -0.17572386150E+02  0.23826718577E+01  0.20484758444E+02  0.00000000000E+00 0.  1.
         21    1    1    2  504  503  0.10254728096E+02  0.17572386150E+02  0.45750749425E+02  0.50070742717E+02  0.00000000000E+00 0.  1.
<mgrwt>
<rscale>  2 0.20345717E+02</rscale>
<asrwt>0</asrwt>
<pdfrwt beam="1">  1       21 0.91299169E-02 0.20345717E+02</pdfrwt>
<pdfrwt beam="2">  1       21 0.17247754E-02 0.20345717E+02</pdfrwt>
<totfact> 0.98078923E+07</totfact>
</mgrwt>
</event>
<event>
 4    1  0.4353697E+006  0.2141399E+02  0.7546771E-02  0.1718588E+00
         21   -1    0    0  504  501  0.00000000000E+00  0.00000000000E+00  0.81643379740E+02  0.81643379740E+02  0.00000000000E+00 0. -1.
         21   -1    0    0  503  502 -0.00000000000E+00 -0.00000000000E+00 -0.15402633311E+02  0.15402633311E+02  0.00000000000E+00 0. -1.
         21    1    1    2  503  501  0.62038795984E+00 -0.21405002517E+02  0.71797423005E+02  0.74922820049E+02  0.00000000000E+00 0. -1.
         21    1    1    2  504  502 -0.62038795984E+00  0.21405002517E+02 -0.55566765759E+01  0.22123193001E+02  0.00000000000E+00 0. -1.
<mgrwt>
<rscale>  2 0.21413991E+02</rscale>
<asrwt>0</asrwt>
<pdfrwt beam="1">  1       21 0.12560520E-01 0.21413991E+02</pdfrwt>
<pdfrwt beam="2">  1       21 0.23696359E-02 0.21413991E+02</pdfrwt>
<totfact> 0.36085232E+07</totfact>
</mgrwt>
</event>
<event>
 4    1  0.4353697E+006  0.2043580E+02  0.7546771E-02  0.1736798E+00
         21   -1    0    0  502  501  0.00000000000E+00  0.00000000000E+00  0.79341106076E+01  0.79341106076E+01  0.00000000000E+00 0.  1.
         21   -1    0    0  504  502 -0.00000000000E+00 -0.00000000000E+00 -0.12869179822E+03  0.12869179822E+03  0.00000000000E+00 0.  1.
         21    1    1    2  503  501  0.20395640213E+02 -0.12805323305E+01 -0.78626723275E+01  0.21896198731E+02  0.00000000000E+00 0.  1.
         21    1    1    2  504  503 -0.20395640213E+02  0.12805323305E+01 -0.11289501528E+03  0.11472971009E+03  0.00000000000E+00 0.  1.
<mgrwt>
<rscale>  2 0.20435800E+02</rscale>
<asrwt>0</asrwt>
<pdfrwt beam="1">  1       21 0.12206325E-02 0.20435800E+02</pdfrwt>
<pdfrwt beam="2">  1       21 0.19798736E-01 0.20435800E+02</pdfrwt>
<totfact> 0.45064531E+07</totfact>
</mgrwt>
</event>
<event>
 4    1  0.4353697E+006  0.4301130E+02  0.7546771E-02  0.1487153E+00
         21   -1    0    0  502  501  0.00000000000E+00  0.00000000000E+00  0.62885603527E+03  0.62885603527E+03  0.00000000000E+00 0. -1.
         21   -1    0    0  504  502 -0.00000000000E+00 -0.00000000000E+00 -0.23182292088E+03  0.23182292088E+03  0.00000000000E+00 0. -1.
         21    1    1    2  503  501  0.34604303025E+02 -0.25544351895E+02  0.62611683957E+03  0.62759243821E+03  0.00000000000E+00 0. -1.
         21    1    1    2  504  503 -0.34604303025E+02  0.25544351895E+02 -0.22908372519E+03  0.23308651794E+03  0.00000000000E+00 0. -1.
<mgrwt>
<rscale>  2 0.43011297E+02</rscale>
<asrwt>0</asrwt>
<pdfrwt beam="1">  1       21 0.96747082E-01 0.43011297E+02</pdfrwt>
<pdfrwt beam="2">  1       21 0.35665065E-01 0.43011297E+02</pdfrwt>
<totfact> 0.81521154E+03</totfact>
</mgrwt>
</event>
<event>
 4    1  0.4353697E+006  0.2403234E+02  0.7546771E-02  0.1675303E+00
         21   -1    0    0  502  501  0.00000000000E+00  0.00000000000E+00  0.21129842471E+03  0.21129842471E+03  0.00000000000E+00 0.  1.
         21   -1    0    0  503  502 -0.00000000000E+00 -0.00000000000E+00 -0.84625535516E+01  0.84625535516E+01  0.00000000000E+00 0.  1.
         21    1    1    2  503  504  0.20267389032E+02 -0.12914582423E+02  0.11007861477E+02  0.26433435486E+02  0.00000000000E+00 0.  1.
         21    1    1    2  504  501 -0.20267389032E+02  0.12914582423E+02  0.19182800968E+03  0.19332754277E+03  0.00000000000E+00 0.  1.
<mgrwt>
<rscale>  2 0.24032343E+02</rscale>
<asrwt>0</asrwt>
<pdfrwt beam="1">  1       21 0.32507446E-01 0.24032343E+02</pdfrwt>
<pdfrwt beam="2">  1       21 0.13019315E-02 0.24032343E+02</pdfrwt>
<totfact> 0.17520740E+07</totfact>
</mgrwt>
</event>
<event>
 4    1  0.4353697E+006  0.2594543E+02  0.7546771E-02  0.1647782E+00
         21   -1    0    0  504  501  0.00000000000E+00  0.00000000000E+00  0.11583779779E+03  0.11583779779E+03  0.00000000000E+00 0. -1.
         21   -1    0    0  501  502 -0.00000000000E+00 -0.00000000000E+00 -0.20538113625E+02  0.20538113625E+02  0.00000000000E+00 0.  1.
         21    1    1    2  503  502  0.25925752055E+02 -0.10101934531E+01 -0.10090876203E+02  0.27838658247E+02  0.00000000000E+00 0.  1.
         21    1    1    2  504  503 -0.25925752055E+02  0.10101934531E+01  0.10539056036E+03  0.10853725316E+03  0.00000000000E+00 0. -1.
<mgrwt>
<rscale>  2 0.25945426E+02</rscale>
<asrwt>0</asrwt>
<pdfrwt beam="1">  1       21 0.17821199E-01 0.25945426E+02</pdfrwt>
<pdfrwt beam="2">  1       21 0.31597098E-02 0.25945426E+02</pdfrwt>
<totfact> 0.13259509E+07</totfact>
</mgrwt>
</event>
<event>
 4    1  0.4353697E+006  0.2007007E+02  0.7546771E-02  0.1743938E+00
         21   -1    0    0  503  501  0.00000000000E+00  0.00000000000E+00  0.15548736857E+03  0.15548736857E+03  0.00000000000E+00 0. -1.
         21   -1    0    0  501  502 -0.00000000000E+00 -0.00000000000E+00 -0.58348463738E+01  0.58348463738E+01  0.00000000000E+00 0. -1.
         21    1    1    2  503  504  0.25153676073E+01 -0.19911818584E+02  0.13497208986E+03  0.13645611981E+03  0.00000000000E+00 0. -1.
         21    1    1    2  504  502 -0.25153676073E+01  0.19911818584E+02  0.14680432342E+02  0.24866095135E+02  0.00000000000E+00 0. -1.
<mgrwt>
<rscale>  2 0.20070067E+02</rscale>
<asrwt>0</asrwt>
<pdfrwt beam="1">  1       21 0.23921131E-01 0.20070067E+02</pdfrwt>
<pdfrwt beam="2">  1       21 0.89766879E-03 0.20070067E+02</pdfrwt>
<totfact> 0.51036825E+07</totfact>
</mgrwt>
</event>
<event>
 4    1  0.4353697E+006  0.2423521E+02  0.7546771E-02  0.1672236E+00
         21   -1    0    0  503  501  0.00000000000E+00  0.00000000000E+00  0.83904735691E+02  0.83904735691E+02  0.00000000000E+00 0.  1.
         21   -1    0    0  501  502 -0.00000000000E+00 -0.00000000000E+00 -0.33307067478E+02  0.33307067478E+02  0.00000000000E+00 0. -1.
         21    1    1    2  503  504  0.77887280575E+01 -0.22949535082E+02  0.77383293740E+02  0.81089577599E+02  0.00000000000E+00 0.  1.
         21    1    1    2  504  502 -0.77887280575E+01  0.22949535082E+02 -0.26785625526E+02  0.36122225569E+02  0.00000000000E+00 0. -1.
<mgrwt>
<rscale>  2 0.24235211E+02</rscale>
<asrwt>0</asrwt>
<pdfrwt beam="1">  1       21 0.12908421E-01 0.24235211E+02</pdfrwt>
<pdfrwt beam="2">  1       21 0.51241643E-02 0.24235211E+02</pdfrwt>
<totfact> 0.10581602E+07</totfact>
</mgrwt>
</event>
<event>
 4    1  0.4353697E+006  0.3537935E+02  0.7546771E-02  0.1545257E+00
         21   -1    0    0  503  501  0.00000000000E+00  0.00000000000E+00  0.17381688787E+01  0.17381688787E+01  0.00000000000E+00 0.  1.
         21   -1    0    0  504  502 -0.00000000000E+00 -0.00000000000E+00 -0.11822392933E+04  0.11822392933E+04  0.00000000000E+00 0.  1.
         21    1    1    2  503  502  0.80413129811E+01 -0.34453386705E+02 -0.22013655198E+03  0.22296143183E+03  0.00000000000E+00 0.  1.
         21    1    1    2  504  501 -0.80413129811E+01  0.34453386705E+02 -0.96036457242E+03  0.96101603032E+03  0.00000000000E+00 0.  1.
<mgrwt>
<rscale>  2 0.35379352E+02</rscale>
<asrwt>0</asrwt>
<pdfrwt beam="1">  1       21 0.26741020E-03 0.35379352E+02</pdfrwt>
<pdfrwt beam="2">  1       21 0.18188323E+00 0.35379352E+02</pdfrwt>
<totfact> 0.49870036E+06</totfact>
</mgrwt>
</event>
<event>
 4    1  0.4353697E+006  0.2384091E+02  0.7546771E-02  0.1678231E+00
         21   -1    0    0  504  501  0.00000000000E+00  0.00000000000E+00  0.99128144658E+01  0.99128144658E+01  0.00000000000E+00 0.  1.
         21   -1    0    0  503  502 -0.00000000000E+00 -0.00000000000E+00 -0.21053703773E+03  0.21053703773E+03  0.00000000000E+00 0.  1.
         21    1    1    2  503  501  0.11305172893E+02  0.20990043253E+02 -0.62873042901E+01  0.24656014381E+02  0.00000000000E+00 0.  1.
         21    1    1    2  504  502 -0.11305172893E+02 -0.20990043253E+02 -0.19433691898E+03  0.19579383782E+03  0.00000000000E+00 0.  1.
<mgrwt>
<rscale>  2 0.23840907E+02</rscale>
<asrwt>0</asrwt>
<pdfrwt beam="1">  1       21 0.15250485E-02 0.23840907E+02</pdfrwt>
<pdfrwt beam="2">  1       21 0.32390311E-01 0.23840907E+02</pdfrwt>
<totfact> 0.13847309E+07</totfact>
</mgrwt>
</event>
<event>
 4    1  0.4353697E+006  0.3174156E+02  0.7546771E-02  0.1579599E+00
         21   -1    0    0  502  501  0.00000000000E+00  0.00000000000E+00  0.21195035602E+02  0.21195035602E+02  0.00000000000E+00 0. -1.
         21   -1    0    0  504  502 -0.00000000000E+00 -0.00000000000E+00 -0.11796487927E+03  0.11796487927E+03  0.00000000000E+00 0.  1.
         21    1    1    2  503  501  0.28670162625E+02 -0.13621619511E+02  0.53780481400E+01  0.32193945779E+02  0.00000000000E+00 0. -1.
         21    1    1    2  504  503 -0.28670162625E+02  0.13621619511E+02 -0.10214789181E+03  0.10696596909E+03  0.00000000000E+00 0.  1.
<mgrwt>
<rscale>  2 0.31741562E+02</rscale>
<asrwt>0</asrwt>
<pdfrwt beam="1">  1       21 0.32607747E-02 0.31741562E+02</pdfrwt>
<pdfrwt beam="2">  1       21 0.18148443E-01 0.31741562E+02</pdfrwt>
<totfact> 0.12662840E+07</totfact>
</mgrwt>
</event>
<event>
 4    1  0.4353697E+006  0.2960093E+02  0.7546771E-02  0.1602542E+00
         21   -1    0    0  504  501  0.00000000000E+00  0.00000000000E+00  0.19392956802E+01  0.19392956802E+01  0.00000000000E+00 0. -1.
         21   -1    0    0  503  502 -0.00000000000E+00 -0.00000000000E+00 -0.64871374302E+03  0.64871374302E+03  0.00000000000E+00 0. -1.
         21    1    1    2  503  501 -0.27550568255E+02  0.10825031519E+02 -0.14415857594E+03  0.14716626697E+03  0.00000000000E+00 0. -1.
         21    1    1    2  504  502  0.27550568255E+02 -0.10825031519E+02 -0.50261587140E+03  0.50348677173E+03  0.00000000000E+00 0. -1.
<mgrwt>
<rscale>  2 0.29600931E+02</rscale>
<asrwt>0</asrwt>
<pdfrwt beam="1">  1       21 0.29835329E-03 0.29600931E+02</pdfrwt>
<pdfrwt beam="2">  1       21 0.99802079E-01 0.29600931E+02</pdfrwt>
<totfact> 0.17265215E+07</totfact>
</mgrwt>
</event>
<event>
 4    1  0.4353697E+006  0.2218439E+02  0.7546771E-02  0.1705082E+00
         21   -1    0    0  503  501  0.00000000000E+00  0.00000000000E+00  0.11877919168E+04  0.11877919168E+04  0.00000000000E+00 0.  1.
         21   -1    0    0  504  502 -0.00000000000E+00 -0.00000000000E+00 -0.70894192948E+00  0.70894192948E+00  0.00000000000E+00 0.  1.
         21    1    1    2  503  502  0.19635969243E+02  0.10323560443E+02  0.97661623723E+03  0.97686817023E+03  0.00000000000E+00 0.  1.
         21    1    1    2  504  501 -0.19635969243E+02 -0.10323560443E+02  0.21046673767E+03  0.21163268853E+03  0.00000000000E+00 0.  1.
<mgrwt>
<rscale>  2 0.22184391E+02</rscale>
<asrwt>0</asrwt>
<pdfrwt beam="1">  1       21 0.18273563E+00 0.22184391E+02</pdfrwt>
<pdfrwt beam="2">  1       21 0.10906894E-03 0.22184391E+02</pdfrwt>
<totfact> 0.17180391E+07</totfact>
</mgrwt>
</event>
<event>
 4    1  0.4353697E+006  0.2148222E+02  0.7546771E-02  0.1717364E+00
         21   -1    0    0  504  501  0.00000000000E+00  0.00000000000E+00  0.11725828090E+03  0.11725828090E+03  0.00000000000E+00 0. -1.
         21   -1    0    0  503  502 -0.00000000000E+00 -0.00000000000E+00 -0.54191708605E+01  0.54191708605E+01  0.00000000000E+00 0. -1.
         21    1    1    2  503  501  0.20067159327E+02 -0.76677728211E+01  0.88013090782E+02  0.90596852994E+02  0.00000000000E+00 0. -1.
         21    1    1    2  504  502 -0.20067159327E+02  0.76677728211E+01  0.23826019255E+02  0.32080598764E+02  0.00000000000E+00 0. -1.
<mgrwt>
<rscale>  2 0.21482216E+02</rscale>
<asrwt>0</asrwt>
<pdfrwt beam="1">  1       21 0.18039734E-01 0.21482216E+02</pdfrwt>
<pdfrwt beam="2">  1       21 0.83371868E-03 0.21482216E+02</pdfrwt>
<totfact> 0.94931647E+07</totfact>
</mgrwt>
</event>
<event>
 4    1  0.4353697E+006  0.3694454E+02  0.7546771E-02  0.1531981E+00
         21   -1    0    0  503  501  0.00000000000E+00  0.00000000000E+00  0.10467510210E+02  0.10467510210E+02  0.00000000000E+00 0. -1.
         21   -1    0    0  504  502 -0.00000000000E+00 -0.00000000000E+00 -0.13088826783E+03  0.13088826783E+03  0.00000000000E+00 0. -1.
         21    1    1    2  503  502  0.36916010473E+02  0.14515720780E+01 -0.64554310775E+02  0.74378477602E+02  0.00000000000E+00 0. -1.
         21    1    1    2  504  501 -0.36916010473E+02 -0.14515720780E+01 -0.55866446845E+02  0.66977300437E+02  0.00000000000E+00 0. -1.
<mgrwt>
<rscale>  2 0.36944538E+02</rscale>
<asrwt>0</asrwt>
<pdfrwt beam="1">  1       21 0.16103861E-02 0.36944538E+02</pdfrwt>
<pdfrwt beam="2">  1       21 0.20136657E-01 0.36944538E+02</pdfrwt>
<totfact> 0.32607956E+07</totfact>
</mgrwt>
</event>
<event>
 4    1  0.4353697E+006  0.2024914E+02  0.7546771E-02  0.1740419E+00
         21   -1    0    0  502  501  0.00000000000E+00  0.00000000000E+00  0.12936695306E+02  0.12936695306E+02  0.00000000000E+00 0.  1.
         21   -1    0    0  504  502 -0.00000000000E+00 -0.00000000000E+00 -0.22407839151E+03  0.22407839151E+03  0.00000000000E+00 0. -1.
         21    1    1    2  503  501  0.81463967865E+01 -0.18538169734E+02  0.42361162269E+01  0.20687488934E+02  0.00000000000E+00 0.  1.
         21    1    1    2  504  503 -0.81463967865E+01  0.18538169734E+02 -0.21537781243E+03  0.21632759788E+03  0.00000000000E+00 0. -1.
<mgrwt>
<rscale>  2 0.20249136E+02</rscale>
<asrwt>0</asrwt>
<pdfrwt beam="1">  1       21 0.19902609E-02 0.20249136E+02</pdfrwt>
<pdfrwt beam="2">  1       21 0.34473598E-01 0.20249136E+02</pdfrwt>
<totfact> 0.79759904E+06</totfact>
</mgrwt>
</event>
<event>
 4    1  0.4353697E+006  0.2386901E+02  0.7546771E-02  0.1677799E+00
         21   -1    0    0  502  501  0.00000000000E+00  0.00000000000E+00  0.20874388533E+02  0.20874388533E+02  0.00000000000E+00 0.  1.
         21   -1    0    0  504  502 -0.00000000000E+00 -0.00000000000E+00 -0.39286659138E+02  0.39286659138E+02  0.00000000000E+00 0.  1.
         21    1    1    2  503  501 -0.36359929183E+01  0.23590444249E+02  0.74139985665E+01  0.24993936847E+02  0.00000000000E+00 0.  1.
         21    1    1    2  504  503  0.36359929183E+01 -0.23590444249E+02 -0.25826269171E+02  0.35167110824E+02  0.00000000000E+00 0.  1.
<mgrwt>
<rscale>  2 0.23869007E+02</rscale>
<asrwt>0</asrwt>
<pdfrwt beam="1">  1       21 0.32114444E-02 0.23869007E+02</pdfrwt>
<pdfrwt beam="2">  1       21 0.60441015E-02 0.23869007E+02</pdfrwt>
<totfact> 0.76890664E+07</totfact>
</mgrwt>
</event>
<event>
 4    1  0.4353697E+006  0.2405329E+02  0.7546771E-02  0.1674984E+00
         21   -1    0    0  503  501  0.00000000000E+00  0.00000000000E+00  0.24187601559E+03  0.24187601559E+03  0.00000000000E+00 0.  1.
         21   -1    0    0  504  502 -0.00000000000E+00 -0.00000000000E+00 -0.16343877676E+02  0.16343877676E+02  0.00000000000E+00 0.  1.
         21    1    1    2  503  502 -0.14588014320E+02 -0.19124607713E+02  0.23205465963E+03  0.23329793364E+03  0.00000000000E+00 0.  1.
         21    1    1    2  504  501  0.14588014320E+02  0.19124607713E+02 -0.65225217214E+01  0.24921959626E+02  0.00000000000E+00 0.  1.
<mgrwt>
<rscale>  2 0.24053290E+02</rscale>
<asrwt>0</asrwt>
<pdfrwt beam="1">  1       21 0.37211692E-01 0.24053290E+02</pdfrwt>
<pdfrwt beam="2">  1       21 0.25144429E-02 0.24053290E+02</pdfrwt>
<totfact> 0.49754853E+06</totfact>
</mgrwt>
</event>
<event>
 4    1  0.4353697E+006  0.3066895E+02  0.7546771E-02  0.1590810E+00
         21   -1    0    0  504  501  0.00000000000E+00  0.00000000000E+00  0.21870101246E+03  0.21870101246E+03  0.00000000000E+00 0.  1.
         21   -1    0    0  503  502 -0.00000000000E+00 -0.00000000000E+00 -0.68557056202E+01  0.68557056202E+01  0.00000000000E+00 0.  1.
         21    1    1    2  503  501  0.28581630140E+02  0.11120920178E+02  0.37075020518E+02  0.48115918296E+02  0.00000000000E+00 0.  1.
         21    1    1    2  504  502 -0.28581630140E+02 -0.11120920178E+02  0.17477028632E+03  0.17744079979E+03  0.00000000000E+00 0.  1.
<mgrwt>
<rscale>  2 0.30668949E+02</rscale>
<asrwt>0</asrwt>
<pdfrwt beam="1">  1       21 0.33646304E-01 0.30668949E+02</pdfrwt>
<pdfrwt beam="2">  1       21 0.10547241E-02 0.30668949E+02</pdfrwt>
<totfact> 0.23700656E+07</totfact>
</mgrwt>
</event>
<event>
 4    1  0.4353697E+006  0.2084219E+02  0.7546771E-02  0.1729081E+00
         21   -1    0    0  502  501  0.00000000000E+00  0.00000000000E+00  0.25958625714E+02  0.25958625714E+02  0.00000000000E+00 0.  1.
         21   -1    0    0  504  502 -0.00000000000E+00 -0.00000000000E+00 -0.18146102812E+02  0.18146102812E+02  0.00000000000E+00 0. -1.
         21    1    1    2  503  501 -0.19157735008E+02  0.82084265536E+01  0.10057526460E+02  0.23141973028E+02  0.00000000000E+00 0.  1.
         21    1    1    2  504  503  0.19157735008E+02 -0.82084265536E+01 -0.22450035581E+01  0.20962755499E+02  0.00000000000E+00 0. -1.
<mgrwt>
<rscale>  2 0.20842195E+02</rscale>
<asrwt>0</asrwt>
<pdfrwt beam="1">  1       21 0.39936347E-02 0.20842195E+02</pdfrwt>
<pdfrwt beam="2">  1       21 0.27917081E-02 0.20842195E+02</pdfrwt>
<totfact> 0.17740187E+08</totfact>
</mgrwt>
</event>
<event>
 4    1  0.4353697E+006  0.2475366E+02  0.7546771E-02  0.1664566E+00
         21   -1    0    0  504  501  0.00000000000E+00  0.00000000000E+00  0.13701077502E+03  0.13701077502E+03  0.00000000000E+00 0.  1.
         21   -1    0    0  503  502 -0.00000000000E+00 -0.00000000000E+00 -0.64629041631E+01  0.64629041631E+01  0.00000000000E+00 0.  1.
         21    1    1    2  503  501 -0.89747598976E+01  0.23069404917E+02  0.25460612749E+02  0.35510372569E+02  0.00000000000E+00 0.  1.
         21    1    1    2  504  502  0.89747598976E+01 -0.23069404917E+02  0.10508725811E+03  0.10796330662E+03  0.00000000000E+00 0.  1.
<mgrwt>
<rscale>  2 0.24753662E+02</rscale>
<asrwt>0</asrwt>
<pdfrwt beam="1">  1       21 0.21078579E-01 0.24753662E+02</pdfrwt>
<pdfrwt beam="2">  1       21 0.99429305E-03 0.24753662E+02</pdfrwt>
<totfact> 0.57729579E+07</totfact>
</mgrwt>
</event>
<event>
 4    1  0.4353697E+006  0.2107683E+02  0.7546771E-02  0.1724725E+00
         21   -1    0    0  504  501  0.00000000000E+00  0.00000000000E+00  0.74666114495E+01  0.74666114495E+01  0.00000000000E+00 0. -1.
         21   -1    0    0  503  502 -0.00000000000E+00 -0.00000000000E+00 -0.93125836026E+02  0.93125836026E+02  0.00000000000E+00 0. -1.
         21    1    1    2  503  501  0.18374997293E-01 -0.21076817507E+02 -0.12604809520E+02  0.24558375290E+02  0.00000000000E+00 0. -1.
         21    1    1    2  504  502 -0.18374997293E-01  0.21076817507E+02 -0.73054415057E+02  0.76034072186E+02  0.00000000000E+00 0. -1.
<mgrwt>
<rscale>  2 0.21076826E+02</rscale>
<asrwt>0</asrwt>
<pdfrwt beam="1">  1       21 0.11487094E-02 0.21076826E+02</pdfrwt>
<pdfrwt beam="2">  1       21 0.14327052E-01 0.21076826E+02</pdfrwt>
<totfact> 0.86596507E+07</totfact>
</mgrwt>
</event>
<event>
 4    1  0.4353697E+006  0.2091978E+02  0.7546771E-02  0.1727632E+00
         21   -1    0    0  504  501  0.00000000000E+00  0.00000000000E+00  0.37882014979E+01  0.37882014979E+01  0.00000000000E+00 0.  1.
         21   -1    0    0  503  502 -0.00000000000E+00 -0.00000000000E+00 -0.43843240015E+03  0.43843240015E+03  0.00000000000E+00 0. -1.
         21    1    1    2  503  501  0.63681727046E+01 -0.19926954021E+02 -0.27566001404E+02  0.34605224368E+02  0.00000000000E+00 0.  1.
         21    1    1    2  504  502 -0.63681727046E+01  0.19926954021E+02 -0.40707819725E+03  0.40761537728E+03  0.00000000000E+00 0. -1.
<mgrwt>
<rscale>  2 0.20919778E+02</rscale>
<asrwt>0</asrwt>
<pdfrwt beam="1">  1       21 0.58280019E-03 0.20919778E+02</pdfrwt>
<pdfrwt beam="2">  1       21 0.67451144E-01 0.20919778E+02</pdfrwt>
<totfact> 0.13886422E+07</totfact>
</mgrwt>
</event>
<event>
 4    1  0.4353697E+006  0.2216653E+02  0.7546771E-02  0.1705388E+00
         21   -1    0    0  503  501  0.00000000000E+00  0.00000000000E+00  0.13245584538E+02  0.13245584538E+02  0.00000000000E+00 0. -1.
         21   -1    0    0  504  502 -0.00000000000E+00 -0.00000000000E+00 -0.76384239007E+02  0.76384239007E+02  0.00000000000E+00 0. -1.
         21    1    1    2  503  502  0.17293675103E+01 -0.22098967896E+02 -0.63709872989E+02  0.67455933840E+02  0.00000000000E+00 0. -1.
         21    1    1    2  504  501 -0.17293675103E+01  0.22098967896E+02  0.57121852014E+00  0.22173889705E+02  0.00000000000E+00 0. -1.
<mgrwt>
<rscale>  2 0.22166531E+02</rscale>
<asrwt>0</asrwt>
<pdfrwt beam="1">  1       21 0.20377823E-02 0.22166531E+02</pdfrwt>
<pdfrwt beam="2">  1       21 0.11751421E-01 0.22166531E+02</pdfrwt>
<totfact> 0.51305195E+07</totfact>
</mgrwt>
</event>
<event>
 4    1  0.4353697E+006  0.2205580E+02  0.7546771E-02  0.1707289E+00
         21   -1    0    0  503  501  0.00000000000E+00  0.00000000000E+00  0.41150205038E+03  0.41150205038E+03  0.00000000000E+00 0.  1.
         21   -1    0    0  504  502 -0.00000000000E+00 -0.00000000000E+00 -0.39624934267E+01  0.39624934267E+01  0.00000000000E+00 0. -1.
         21    1    1    2  503  502 -0.18029820697E+02  0.12703693971E+02  0.37777757251E+03  0.37842086698E+03  0.00000000000E+00 0.  1.
         21    1    1    2  504  501  0.18029820697E+02 -0.12703693971E+02  0.29761984450E+02  0.37043676832E+02  0.00000000000E+00 0. -1.
<mgrwt>
<rscale>  2 0.22055799E+02</rscale>
<asrwt>0</asrwt>
<pdfrwt beam="1">  1       21 0.63307974E-01 0.22055799E+02</pdfrwt>
<pdfrwt beam="2">  1       21 0.60961470E-03 0.22055799E+02</pdfrwt>
<totfact> 0.14921089E+07</totfact>
</mgrwt>
</event>
<event>
 4    1  0.4353697E+006  0.2058204E+02  0.7546771E-02  0.1733995E+00
         21   -1    0    0  502  501  0.00000000000E+00  0.00000000000E+00  0.40311468108E+01  0.40311468108E+01  0.00000000000E+00 0. -1.
         21   -1    0    0  504  502 -0.00000000000E+00 -0.00000000000E+00 -0.27532283101E+03  0.27532283101E+03  0.00000000000E+00 0.  1.
         21    1    1    2  503  501 -0.19258000906E+02 -0.72629005619E+01 -0.25813690358E+02  0.33014647255E+02  0.00000000000E+00 0. -1.
         21    1    1    2  504  503  0.19258000906E+02  0.72629005619E+01 -0.24547799384E+03  0.24633933057E+03  0.00000000000E+00 0.  1.
<mgrwt>
<rscale>  2 0.20582039E+02</rscale>
<asrwt>0</asrwt>
<pdfrwt beam="1">  1       21 0.62017625E-03 0.20582039E+02</pdfrwt>
<pdfrwt beam="2">  1       21 0.42357371E-01 0.20582039E+02</pdfrwt>
<totfact> 0.31366039E+07</totfact>
</mgrwt>
</event>
<event>
 4    1  0.4353697E+006  0.2958148E+02  0.7546771E-02  0.1602761E+00
         21   -1    0    0  504  501  0.00000000000E+00  0.00000000000E+00  0.46143009511E+03  0.46143009511E+03  0.00000000000E+00 0.  1.
         21   -1    0    0  501  502 -0.00000000000E+00 -0.00000000000E+00 -0.19477905643E+02  0.19477905643E+02  0.00000000000E+00 0. -1.
         21    1    1    2  503  502  0.29376763365E+02 -0.34741320033E+01 -0.74726108709E+01  0.30510715039E+02  0.00000000000E+00 0. -1.
         21    1    1    2  504  503 -0.29376763365E+02  0.34741320033E+01  0.44942480033E+03  0.45039728571E+03  0.00000000000E+00 0.  1.
<mgrwt>
<rscale>  2 0.29581478E+02</rscale>
<asrwt>0</asrwt>
<pdfrwt beam="1">  1       21 0.70989237E-01 0.29581478E+02</pdfrwt>
<pdfrwt beam="2">  1       21 0.29966012E-02 0.29581478E+02</pdfrwt>
<totfact> 0.10866585E+06</totfact>
</mgrwt>
</event>
<event>
 4    1  0.4353697E+006  0.2582582E+02  0.7546771E-02  0.1649416E+00
         21   -1    0    0  503  501  0.00000000000E+00  0.00000000000E+00  0.10009898832E+04  0.10009898832E+04  0.00000000000E+00 0. -1.
         21   -1    0    0  501  502 -0.00000000000E+00 -0.00000000000E+00 -0.42708784411E+02  0.42708784411E+02  0.00000000000E+00 0. -1.
         21    1    1    2  503  504 -0.24752415196E+02 -0.73682501560E+01  0.99690311041E+03  0.99723757687E+03  0.00000000000E+00 0. -1.
         21    1    1    2  504  502  0.24752415196E+02  0.73682501560E+01 -0.38622011639E+02  0.46461090726E+02  0.00000000000E+00 0. -1.
<mgrwt>
<rscale>  2 0.25825824E+02</rscale>
<asrwt>0</asrwt>
<pdfrwt beam="1">  1       21 0.15399843E+00 0.25825824E+02</pdfrwt>
<pdfrwt beam="2">  1       21 0.65705830E-02 0.25825824E+02</pdfrwt>
<totfact> 0.55169757E+04</totfact>
</mgrwt>
</event>
<event>
 4    1  0.4353697E+006  0.3886789E+02  0.7546771E-02  0.1516712E+00
         21   -1    0    0  504  501  0.00000000000E+00  0.00000000000E+00  0.89489133784E+02  0.89489133784E+02  0.00000000000E+00 0.  1.
         21   -1    0    0  503  502 -0.00000000000E+00 -0.00000000000E+00 -0.16975018022E+02  0.16975018022E+02  0.00000000000E+00 0.  1.
         21    1    1    2  503  501 -0.18322132946E+02  0.34278458067E+02  0.40207564961E+02  0.55922817555E+02  0.00000000000E+00 0.  1.
         21    1    1    2  504  502  0.18322132946E+02 -0.34278458067E+02  0.32306550801E+02  0.50541334251E+02  0.00000000000E+00 0.  1.
<mgrwt>
<rscale>  2 0.38867895E+02</rscale>
<asrwt>0</asrwt>
<pdfrwt beam="1">  1       21 0.13767559E-01 0.38867895E+02</pdfrwt>
<pdfrwt beam="2">  1       21 0.26115413E-02 0.38867895E+02</pdfrwt>
<totfact> 0.30085014E+07</totfact>
</mgrwt>
</event>
<event>
 4    1  0.4353697E+006  0.2279077E+02  0.7546771E-02  0.1694924E+00
         21   -1    0    0  502  501  0.00000000000E+00  0.00000000000E+00  0.41656093947E+03  0.41656093947E+03  0.00000000000E+00 0.  1.
         21   -1    0    0  504  502 -0.00000000000E+00 -0.00000000000E+00 -0.61029412491E+01  0.61029412491E+01  0.00000000000E+00 0. -1.
         21    1    1    2  503  501  0.11748131372E+01 -0.22760465666E+02  0.39373958689E+03  0.39439863243E+03  0.00000000000E+00 0.  1.
         21    1    1    2  504  503 -0.11748131372E+01  0.22760465666E+02  0.16718411338E+02  0.28265248290E+02  0.00000000000E+00 0. -1.
<mgrwt>
<rscale>  2 0.22790765E+02</rscale>
<asrwt>0</asrwt>
<pdfrwt beam="1">  1       21 0.64086276E-01 0.22790765E+02</pdfrwt>
<pdfrwt beam="2">  1       21 0.93891437E-03 0.22790765E+02</pdfrwt>
<totfact> 0.76970751E+06</totfact>
</mgrwt>
</event>
<event>
 4    1  0.4353697E+006  0.2560562E+02  0.7546771E-02  0.1652453E+00
         21   -1    0    0  503  501  0.00000000000E+00  0.00000000000E+00  0.14415449662E+02  0.14415449662E+02  0.00000000000E+00 0. -1.
         21   -1    0    0  504  502 -0.00000000000E+00 -0.00000000000E+00 -0.68132888551E+03  0.68132888551E+03  0.00000000000E+00 0. -1.
         21    1    1    2  503  502 -0.24708615869E+02  0.67180427844E+01 -0.66951720649E+03  0.67000666980E+03  0.00000000000E+00 0. -1.
         21    1    1    2  504  501  0.24708615869E+02 -0.67180427844E+01  0.26037706413E+01  0.25737665368E+02  0.00000000000E+00 0. -1.
<mgrwt>
<rscale>  2 0.25605620E+02</rscale>
<asrwt>0</asrwt>
<pdfrwt beam="1">  1       21 0.22177620E-02 0.25605620E+02</pdfrwt>
<pdfrwt beam="2">  1       21 0.10481980E+00 0.25605620E+02</pdfrwt>
<totfact> 0.74561676E+05</totfact>
</mgrwt>
</event>
<event>
 4    1  0.4353697E+006  0.2394491E+02  0.7546771E-02  0.1676636E+00
         21   -1    0    0  502  501  0.00000000000E+00  0.00000000000E+00  0.45570116272E+02  0.45570116272E+02  0.00000000000E+00 0. -1.
         21   -1    0    0  504  502 -0.00000000000E+00 -0.00000000000E+00 -0.27739636842E+03  0.27739636842E+03  0.00000000000E+00 0. -1.
         21    1    1    2  503  501  0.23906768496E+02  0.13509987369E+01  0.41865411984E+02  0.48229363442E+02  0.00000000000E+00 0. -1.
         21    1    1    2  504  503 -0.23906768496E+02 -0.13509987369E+01 -0.27369166414E+03  0.27473712125E+03  0.00000000000E+00 0. -1.
<mgrwt>
<rscale>  2 0.23944911E+02</rscale>
<asrwt>0</asrwt>
<pdfrwt beam="1">  1       21 0.70107871E-02 0.23944911E+02</pdfrwt>
<pdfrwt beam="2">  1       21 0.42676365E-01 0.23944911E+02</pdfrwt>
<totfact> 0.75732990E+05</totfact>
</mgrwt>
</event>
<event>
 4    1  0.4353697E+006  0.2128504E+02  0.7546771E-02  0.1720918E+00
         21   -1    0    0  503  501  0.00000000000E+00  0.00000000000E+00  0.10028206122E+04  0.10028206122E+04  0.00000000000E+00 0.  1.
         21   -1    0    0  501  502 -0.00000000000E+00 -0.00000000000E+00 -0.83919816859E+00  0.83919816859E+00  0.00000000000E+00 0.  1.
         21    1    1    2  503  504 -0.11426163910E+02  0.17958169741E+02  0.84195974559E+03  0.84222874938E+03  0.00000000000E+00 0.  1.
         21    1    1    2  504  502  0.11426163910E+02 -0.17958169741E+02  0.16002166840E+03  0.16143106095E+03  0.00000000000E+00 0.  1.
<mgrwt>
<rscale>  2 0.21285044E+02</rscale>
<asrwt>0</asrwt>
<pdfrwt beam="1">  1       21 0.15427914E+00 0.21285044E+02</pdfrwt>
<pdfrwt beam="2">  1       21 0.12910821E-03 0.21285044E+02</pdfrwt>
<totfact> 0.20249206E+07</totfact>
</mgrwt>
</event>
<event>
 4    1  0.4353697E+006  0.3717023E+02  0.7546771E-02  0.1530132E+00
         21   -1    0    0  503  501  0.00000000000E+00  0.00000000000E+00  0.19588010387E+02  0.19588010387E+02  0.00000000000E+00 0. -1.
         21   -1    0    0  501  502 -0.00000000000E+00 -0.00000000000E+00 -0.73740076516E+02  0.73740076516E+02  0.00000000000E+00 0. -1.
         21    1    1    2  503  504 -0.20900523752E+02  0.30737506217E+02 -0.17346351023E+02  0.41018557695E+02  0.00000000000E+00 0. -1.
         21    1    1    2  504  502  0.20900523752E+02 -0.30737506217E+02 -0.36805715107E+02  0.52309529209E+02  0.00000000000E+00 0. -1.
<mgrwt>
<rscale>  2 0.37170232E+02</rscale>
<asrwt>0</asrwt>
<pdfrwt beam="1">  1       21 0.30135401E-02 0.37170232E+02</pdfrwt>
<pdfrwt beam="2">  1       21 0.11344627E-01 0.37170232E+02</pdfrwt>
<totfact> 0.33157260E+07</totfact>
</mgrwt>
</event>
<event>
 4    1  0.4353697E+006  0.2033197E+02  0.7546771E-02  0.1738806E+00
         21   -1    0    0  502  501  0.00000000000E+00  0.00000000000E+00  0.11662928227E+04  0.11662928227E+04  0.00000000000E+00 0. -1.
         21   -1    0    0  503  502 -0.00000000000E+00 -0.00000000000E+00 -0.55930753541E+00  0.55930753541E+00  0.00000000000E+00 0. -1.
         21    1    1    2  503  504  0.19143936906E+02 -0.68482531788E+01  0.22977324743E+03  0.23067105177E+03  0.00000000000E+00 0. -1.
         21    1    1    2  504  501 -0.19143936906E+02  0.68482531788E+01  0.93596026770E+03  0.93618107843E+03  0.00000000000E+00 0. -1.
<mgrwt>
<rscale>  2 0.20331967E+02</rscale>
<asrwt>0</asrwt>
<pdfrwt beam="1">  1       21 0.17942772E+00 0.20331967E+02</pdfrwt>
<pdfrwt beam="2">  1       21 0.86048247E-04 0.20331967E+02</pdfrwt>
<totfact> 0.24807566E+07</totfact>
</mgrwt>
</event>
<event>
 4    1  0.4353697E+006  0.2475004E+02  0.7546771E-02  0.1664618E+00
         21   -1    0    0  503  501  0.00000000000E+00  0.00000000000E+00  0.49730423089E+01  0.49730423089E+01  0.00000000000E+00 0. -1.
         21   -1    0    0  504  502 -0.00000000000E+00 -0.00000000000E+00 -0.15389731842E+03  0.15389731842E+03  0.00000000000E+00 0. -1.
         21    1    1    2  503  502  0.16084037192E+02  0.18811388359E+02 -0.10995246500E+03  0.11270363412E+03  0.00000000000E+00 0. -1.
         21    1    1    2  504  501 -0.16084037192E+02 -0.18811388359E+02 -0.38971811108E+02  0.46166726605E+02  0.00000000000E+00 0. -1.
<mgrwt>
<rscale>  2 0.24750042E+02</rscale>
<asrwt>0</asrwt>
<pdfrwt beam="1">  1       21 0.76508356E-03 0.24750042E+02</pdfrwt>
<pdfrwt beam="2">  1       21 0.23676507E-01 0.24750042E+02</pdfrwt>
<totfact> 0.69633523E+07</totfact>
</mgrwt>
</event>
<event>
 4    1  0.4353697E+006  0.3586686E+02  0.7546771E-02  0.1541035E+00
         21   -1    0    0  502  501  0.00000000000E+00  0.00000000000E+00  0.17145345198E+03  0.17145345198E+03  0.00000000000E+00 0. -1.
         21   -1    0    0  504  502 -0.00000000000E+00 -0.00000000000E+00 -0.19277715774E+02  0.19277715774E+02  0.00000000000E+00 0.  1.
         21    1    1    2  503  501 -0.34911913891E+02  0.82212991522E+01  0.15061893791E+03  0.15483053946E+03  0.00000000000E+00 0. -1.
         21    1    1    2  504  503  0.34911913891E+02 -0.82212991522E+01  0.15567982976E+01  0.35900628298E+02  0.00000000000E+00 0.  1.
<mgrwt>
<rscale>  2 0.35866858E+02</rscale>
<asrwt>0</asrwt>
<pdfrwt beam="1">  1       21 0.26377453E-01 0.35866858E+02</pdfrwt>
<pdfrwt beam="2">  1       21 0.29658025E-02 0.35866858E+02</pdfrwt>
<totfact> 0.76788159E+06</totfact>
</mgrwt>
</event>
<event>
 4    1  0.4353697E+006  0.2570424E+02  0.7546771E-02  0.1651088E+00
         21   -1    0    0  503  501  0.00000000000E+00  0.00000000000E+00  0.13632722162E+04  0.13632722162E+04  0.00000000000E+00 0.  1.
         21   -1    0    0  504  502 -0.00000000000E+00 -0.00000000000E+00 -0.50327901147E+00  0.50327901147E+00  0.00000000000E+00 0.  1.
         21    1    1    2  503  502  0.23572017172E+02 -0.10250276880E+02  0.55018925162E+03  0.55078936153E+03  0.00000000000E+00 0.  1.
         21    1    1    2  504  501 -0.23572017172E+02  0.10250276880E+02  0.81257968554E+03  0.81298613366E+03  0.00000000000E+00 0.  1.
<mgrwt>
<rscale>  2 0.25704244E+02</rscale>
<asrwt>0</asrwt>
<pdfrwt beam="1">  1       21 0.20973123E+00 0.25704244E+02</pdfrwt>
<pdfrwt beam="2">  1       21 0.77428631E-04 0.25704244E+02</pdfrwt>
<totfact> 0.20042551E+07</totfact>
</mgrwt>
</event>
<event>
 4    1  0.4353697E+006  0.2907579E+02  0.7546771E-02  0.1608535E+00
         21   -1    0    0  503  501  0.00000000000E+00  0.00000000000E+00  0.16596276866E+03  0.16596276866E+03  0.00000000000E+00 0. -1.
         21   -1    0    0  504  502 -0.00000000000E+00 -0.00000000000E+00 -0.51128537663E+01  0.51128537663E+01  0.00000000000E+00 0.  1.
         21    1    1    2  503  502 -0.22339612737E+01  0.28989845717E+02  0.85629691823E+02  0.90431442869E+02  0.00000000000E+00 0.  1.
         21    1    1    2  504  501  0.22339612737E+01 -0.28989845717E+02  0.75220223070E+02  0.80644179556E+02  0.00000000000E+00 0. -1.
<mgrwt>
<rscale>  2 0.29075793E+02</rscale>
<asrwt>0</asrwt>
<pdfrwt beam="1">  1       21 0.25532730E-01 0.29075793E+02</pdfrwt>
<pdfrwt beam="2">  1       21 0.78659301E-03 0.29075793E+02</pdfrwt>
<totfact> 0.60600728E+07</totfact>
</mgrwt>
</event>
<event>
 4    1  0.4353697E+006  0.2040232E+02  0.7546771E-02  0.1737444E+00
         21   -1    0    0  503  501  0.00000000000E+00  0.00000000000E+00  0.15022278626E+03  0.15022278626E+03  0.00000000000E+00 0.  1.
         21   -1    0    0  501  502 -0.00000000000E+00 -0.00000000000E+00 -0.87881363700E+01  0.87881363700E+01  0.00000000000E+00 0.  1.
         21    1    1    2  503  504  0.91636370667E+01 -0.18228617893E+02  0.13650529996E+03  0.13802156234E+03  0.00000000000E+00 0.  1.
         21    1    1    2  504  502 -0.91636370667E+01  0.18228617893E+02  0.49293499330E+01  0.20989360289E+02  0.00000000000E+00 0.  1.
<mgrwt>
<rscale>  2 0.20402322E+02</rscale>
<asrwt>0</asrwt>
<pdfrwt beam="1">  1       21 0.23111196E-01 0.20402322E+02</pdfrwt>
<pdfrwt beam="2">  1       21 0.13520211E-02 0.20402322E+02</pdfrwt>
<totfact> 0.29473282E+07</totfact>
</mgrwt>
</event>
<event>
 4    1  0.4353697E+006  0.2826451E+02  0.7546771E-02  0.1618104E+00
         21   -1    0    0  502  501  0.00000000000E+00  0.00000000000E+00  0.88331370202E+02  0.88331370202E+02  0.00000000000E+00 0. -1.
         21   -1    0    0  503  502 -0.00000000000E+00 -0.00000000000E+00 -0.12478850592E+02  0.12478850592E+02  0.00000000000E+00 0. -1.
         21    1    1    2  503  504 -0.26263901411E+02 -0.10444606462E+02  0.11481988389E+02  0.30507677375E+02  0.00000000000E+00 0. -1.
         21    1    1    2  504  501  0.26263901411E+02  0.10444606462E+02  0.64370531221E+02  0.70302543419E+02  0.00000000000E+00 0. -1.
<mgrwt>
<rscale>  2 0.28264506E+02</rscale>
<asrwt>0</asrwt>
<pdfrwt beam="1">  1       21 0.13589441E-01 0.28264506E+02</pdfrwt>
<pdfrwt beam="2">  1       21 0.19198232E-02 0.28264506E+02</pdfrwt>
<totfact> 0.46682830E+07</totfact>
</mgrwt>
</event>
<event>
 4    1  0.4353697E+006  0.3265730E+02  0.7546771E-02  0.1570446E+00
         21   -1    0    0  503  501  0.00000000000E+00  0.00000000000E+00  0.43755679492E+01  0.43755679492E+01  0.00000000000E+00 0.  1.
         21   -1    0    0  504  502 -0.00000000000E+00 -0.00000000000E+00 -0.78863340178E+03  0.78863340178E+03  0.00000000000E+00 0. -1.
         21    1    1    2  503  502  0.32478479353E+02 -0.34128902574E+01 -0.62544681358E+02  0.70557328515E+02  0.00000000000E+00 0.  1.
         21    1    1    2  504  501 -0.32478479353E+02  0.34128902574E+01 -0.72171315247E+03  0.72245164121E+03  0.00000000000E+00 0. -1.
<mgrwt>
<rscale>  2 0.32657303E+02</rscale>
<asrwt>0</asrwt>
<pdfrwt beam="1">  1       21 0.67316506E-03 0.32657303E+02</pdfrwt>
<pdfrwt beam="2">  1       21 0.12132808E+00 0.32657303E+02</pdfrwt>
<totfact> 0.33547654E+06</totfact>
</mgrwt>
</event>
<event>
 4    1  0.4353697E+006  0.2152121E+02  0.7546771E-02  0.1716666E+00
         21   -1    0    0  503  501  0.00000000000E+00  0.00000000000E+00  0.25732139726E+02  0.25732139726E+02  0.00000000000E+00 0. -1.
         21   -1    0    0  501  502 -0.00000000000E+00 -0.00000000000E+00 -0.14099465356E+03  0.14099465356E+03  0.00000000000E+00 0. -1.
         21    1    1    2  503  504  0.77410243826E+01 -0.20080817474E+02  0.20229439140E+02  0.29536297954E+02  0.00000000000E+00 0. -1.
         21    1    1    2  504  502 -0.77410243826E+01  0.20080817474E+02 -0.13549195297E+03  0.13719049533E+03  0.00000000000E+00 0. -1.
<mgrwt>
<rscale>  2 0.21521215E+02</rscale>
<asrwt>0</asrwt>
<pdfrwt beam="1">  1       21 0.39587908E-02 0.21521215E+02</pdfrwt>
<pdfrwt beam="2">  1       21 0.21691485E-01 0.21521215E+02</pdfrwt>
<totfact> 0.63846181E+06</totfact>
</mgrwt>
</event>
<event>
 4    1  0.4353697E+006  0.2085877E+02  0.7546771E-02  0.1728771E+00
         21   -1    0    0  504  501  0.00000000000E+00  0.00000000000E+00  0.39979863661E+03  0.39979863661E+03  0.00000000000E+00 0. -1.
         21   -1    0    0  503  502 -0.00000000000E+00 -0.00000000000E+00 -0.12342801647E+01  0.12342801647E+01  0.00000000000E+00 0. -1.
         21    1    1    2  503  501 -0.68103130147E+01 -0.19715678252E+02  0.26824843698E+03  0.26905819496E+03  0.00000000000E+00 0. -1.
         21    1    1    2  504  502  0.68103130147E+01  0.19715678252E+02  0.13031591946E+03  0.13197472181E+03  0.00000000000E+00 0. -1.
<mgrwt>
<rscale>  2 0.20858771E+02</rscale>
<asrwt>0</asrwt>
<pdfrwt beam="1">  1       21 0.61507379E-01 0.20858771E+02</pdfrwt>
<pdfrwt beam="2">  1       21 0.18988958E-03 0.20858771E+02</pdfrwt>
<totfact> 0.85524103E+07</totfact>
</mgrwt>
</event>
<event>
 4    1  0.4353697E+006  0.2012682E+02  0.7546771E-02  0.1742818E+00
         21   -1    0    0  503  501  0.00000000000E+00  0.00000000000E+00  0.36707036941E+01  0.36707036941E+01  0.00000000000E+00 0. -1.
         21   -1    0    0  501  502 -0.00000000000E+00 -0.00000000000E+00 -0.11794386966E+03  0.11794386966E+03  0.00000000000E+00 0. -1.
         21    1    1    2  503  504  0.18393745414E+02  0.81706116459E+01 -0.41714533355E+02  0.46316207294E+02  0.00000000000E+00 0. -1.
         21    1    1    2  504  502 -0.18393745414E+02 -0.81706116459E+01 -0.72558632610E+02  0.75298366059E+02  0.00000000000E+00 0. -1.
<mgrwt>
<rscale>  2 0.20126817E+02</rscale>
<asrwt>0</asrwt>
<pdfrwt beam="1">  1       21 0.56472373E-03 0.20126817E+02</pdfrwt>
<pdfrwt beam="2">  1       21 0.18145208E-01 0.20126817E+02</pdfrwt>
<totfact> 0.16419798E+08</totfact>
</mgrwt>
</event>
<event>
 4    1  0.4353697E+006  0.3433102E+02  0.7546771E-02  0.1554623E+00
         21   -1    0    0  503  501  0.00000000000E+00  0.00000000000E+00  0.86722703894E+02  0.86722703894E+02  0.00000000000E+00 0.  1.
         21   -1    0    0  504  502 -0.00000000000E+00 -0.00000000000E+00 -0.16421118892E+02  0.16421118892E+02  0.00000000000E+00 0.  1.
         21    1    1    2  503  502 -0.28271295955E+02 -0.19476985294E+02  0.56561941461E+02  0.66165492162E+02  0.00000000000E+00 0.  1.
         21    1    1    2  504  501  0.28271295955E+02  0.19476985294E+02  0.13739643541E+02  0.36978330624E+02  0.00000000000E+00 0.  1.
<mgrwt>
<rscale>  2 0.34331023E+02</rscale>
<asrwt>0</asrwt>
<pdfrwt beam="1">  1       21 0.13341954E-01 0.34331023E+02</pdfrwt>
<pdfrwt beam="2">  1       21 0.25263260E-02 0.34331023E+02</pdfrwt>
<totfact> 0.32711898E+07</totfact>
</mgrwt>
</event>
<event>
 4    1  0.4353697E+006  0.2116208E+02  0.7546771E-02  0.1723160E+00
         21   -1    0    0  504  501  0.00000000000E+00  0.00000000000E+00  0.22167424650E+03  0.22167424650E+03  0.00000000000E+00 0. -1.
         21   -1    0    0  503  502 -0.00000000000E+00 -0.00000000000E+00 -0.86784922536E+02  0.86784922536E+02  0.00000000000E+00 0. -1.
         21    1    1    2  503  501  0.13234152795E+02  0.16513354892E+02 -0.84979226141E+02  0.87574554326E+02  0.00000000000E+00 0. -1.
         21    1    1    2  504  502 -0.13234152795E+02 -0.16513354892E+02  0.21986855011E+03  0.22088461471E+03  0.00000000000E+00 0. -1.
<mgrwt>
<rscale>  2 0.21162081E+02</rscale>
<asrwt>0</asrwt>
<pdfrwt beam="1">  1       21 0.34103730E-01 0.21162081E+02</pdfrwt>
<pdfrwt beam="2">  1       21 0.13351527E-01 0.21162081E+02</pdfrwt>
<totfact> 0.39451044E+05</totfact>
</mgrwt>
</event>
<event>
 4    1  0.4353697E+006  0.3187956E+02  0.7546771E-02  0.1578196E+00
         21   -1    0    0  502  501  0.00000000000E+00  0.00000000000E+00  0.20057792174E+02  0.20057792174E+02  0.00000000000E+00 0.  1.
         21   -1    0    0  503  502 -0.00000000000E+00 -0.00000000000E+00 -0.35511056563E+03  0.35511056563E+03  0.00000000000E+00 0.  1.
         21    1    1    2  503  504 -0.29367793376E+02  0.12403191093E+02 -0.34121304049E+03  0.34269905958E+03  0.00000000000E+00 0.  1.
         21    1    1    2  504  501  0.29367793376E+02 -0.12403191093E+02  0.61602670353E+01  0.32469298222E+02  0.00000000000E+00 0.  1.
<mgrwt>
<rscale>  2 0.31879561E+02</rscale>
<asrwt>0</asrwt>
<pdfrwt beam="1">  1       21 0.30858142E-02 0.31879561E+02</pdfrwt>
<pdfrwt beam="2">  1       21 0.54632394E-01 0.31879561E+02</pdfrwt>
<totfact> 0.17787353E+06</totfact>
</mgrwt>
</event>
<event>
 4    1  0.4353697E+006  0.3357576E+02  0.7546771E-02  0.1561624E+00
         21   -1    0    0  503  501  0.00000000000E+00  0.00000000000E+00  0.72120684482E+02  0.72120684482E+02  0.00000000000E+00 0. -1.
         21   -1    0    0  504  502 -0.00000000000E+00 -0.00000000000E+00 -0.14270779271E+03  0.14270779271E+03  0.00000000000E+00 0. -1.
         21    1    1    2  503  502  0.26707267879E+02  0.20348306902E+02  0.66067429555E+02  0.74109628250E+02  0.00000000000E+00 0. -1.
         21    1    1    2  504  501 -0.26707267879E+02 -0.20348306902E+02 -0.13665453778E+03  0.14071884894E+03  0.00000000000E+00 0. -1.
<mgrwt>
<rscale>  2 0.33575761E+02</rscale>
<asrwt>0</asrwt>
<pdfrwt beam="1">  1       21 0.11095490E-01 0.33575761E+02</pdfrwt>
<pdfrwt beam="2">  1       21 0.21955045E-01 0.33575761E+02</pdfrwt>
<totfact> 0.12357038E+06</totfact>
</mgrwt>
</event>
<event>
 4    1  0.4353697E+006  0.2509463E+02  0.7546771E-02  0.1659646E+00
         21   -1    0    0  503  501  0.00000000000E+00  0.00000000000E+00  0.64846105709E+02  0.64846105709E+02  0.00000000000E+00 0. -1.
         21   -1    0    0  504  502 -0.00000000000E+00 -0.00000000000E+00 -0.11049063490E+02  0.11049063490E+02  0.00000000000E+00 0. -1.
         21    1    1    2  503  502 -0.21750499072E+02 -0.12516234995E+02  0.40102662519E+02  0.47307123031E+02  0.00000000000E+00 0. -1.
         21    1    1    2  504  501  0.21750499072E+02  0.12516234995E+02  0.13694379701E+02  0.28588046168E+02  0.00000000000E+00 0. -1.
<mgrwt>
<rscale>  2 0.25094628E+02</rscale>
<asrwt>0</asrwt>
<pdfrwt beam="1">  1       21 0.99763238E-02 0.25094628E+02</pdfrwt>
<pdfrwt beam="2">  1       21 0.16998560E-02 0.25094628E+02</pdfrwt>
<totfact> 0.91934170E+07</totfact>
</mgrwt>
</event>
<event>
 4    1  0.4353697E+006  0.2056372E+02  0.7546771E-02  0.1734345E+00
         21   -1    0    0  503  501  0.00000000000E+00  0.00000000000E+00  0.11157012503E+04  0.11157012503E+04  0.00000000000E+00 0. -1.
         21   -1    0    0  504  502 -0.00000000000E+00 -0.00000000000E+00 -0.12892582606E+01  0.12892582606E+01  0.00000000000E+00 0. -1.
         21    1    1    2  503  502 -0.80350289437E+01  0.18928942525E+02  0.10264821279E+04  0.10266880858E+04  0.00000000000E+00 0. -1.
         21    1    1    2  504  501  0.80350289437E+01 -0.18928942525E+02  0.87929864184E+02  0.90302422840E+02  0.00000000000E+00 0. -1.
<mgrwt>
<rscale>  2 0.20563719E+02</rscale>
<asrwt>0</asrwt>
<pdfrwt beam="1">  1       21 0.17164557E+00 0.20563719E+02</pdfrwt>
<pdfrwt beam="2">  1       21 0.19834832E-03 0.20563719E+02</pdfrwt>
<totfact> 0.84239974E+06</totfact>
</mgrwt>
</event>
<event>
 4    1  0.4353697E+006  0.2151895E+02  0.7546771E-02  0.1716707E+00
         21   -1    0    0  504  501  0.00000000000E+00  0.00000000000E+00  0.66348990540E+03  0.66348990540E+03  0.00000000000E+00 0. -1.
         21   -1    0    0  501  502 -0.00000000000E+00 -0.00000000000E+00 -0.71051769559E+00  0.71051769559E+00  0.00000000000E+00 0.  1.
         21    1    1    2  503  502  0.21160699601E+02 -0.39102494863E+01  0.28717513288E+03  0.28798024620E+03  0.00000000000E+00 0.  1.
         21    1    1    2  504  503 -0.21160699601E+02  0.39102494863E+01  0.37560425483E+03  0.37622017690E+03  0.00000000000E+00 0. -1.
<mgrwt>
<rscale>  2 0.21518951E+02</rscale>
<asrwt>0</asrwt>
<pdfrwt beam="1">  1       21 0.10207487E+00 0.21518951E+02</pdfrwt>
<pdfrwt beam="2">  1       21 0.10931095E-03 0.21518951E+02</pdfrwt>
<totfact> 0.65911906E+07</totfact>
</mgrwt>
</event>
<event>
 4    1  0.4353697E+006  0.5690833E+02  0.7546771E-02  0.1411284E+00
         21   -1    0    0  503  501  0.00000000000E+00  0.00000000000E+00  0.39027132285E+03  0.39027132285E+03  0.00000000000E+00 0. -1.
         21   -1    0    0  504  502 -0.00000000000E+00 -0.00000000000E+00 -0.11560854280E+02  0.11560854280E+02  0.00000000000E+00 0.  1.
         21    1    1    2  503  502 -0.18015428665E+01 -0.56879806465E+02  0.82620975400E+02  0.10032339466E+03  0.00000000000E+00 0.  1.
         21    1    1    2  504  501  0.18015428665E+01  0.56879806465E+02  0.29608949317E+03  0.30150878247E+03  0.00000000000E+00 0. -1.
<mgrwt>
<rscale>  2 0.56908329E+02</rscale>
<asrwt>0</asrwt>
<pdfrwt beam="1">  1       21 0.60041732E-01 0.56908329E+02</pdfrwt>
<pdfrwt beam="2">  1       21 0.17785933E-02 0.56908329E+02</pdfrwt>
<totfact> 0.36588403E+06</totfact>
</mgrwt>
</event>
<event>
 4    1  0.4353697E+006  0.2227071E+02  0.7546771E-02  0.1703612E+00
         21   -1    0    0  502  501  0.00000000000E+00  0.00000000000E+00  0.17781331960E+03  0.17781331960E+03  0.00000000000E+00 0.  1.
         21   -1    0    0  503  502 -0.00000000000E+00 -0.00000000000E+00 -0.51776964071E+01  0.51776964071E+01  0.00000000000E+00 0.  1.
         21    1    1    2  503  504  0.22217909676E+02 -0.15326644747E+01  0.24176611632E+02  0.32870855188E+02  0.00000000000E+00 0.  1.
         21    1    1    2  504  501 -0.22217909676E+02  0.15326644747E+01  0.14845901156E+03  0.15012016082E+03  0.00000000000E+00 0.  1.
<mgrwt>
<rscale>  2 0.22270711E+02</rscale>
<asrwt>0</asrwt>
<pdfrwt beam="1">  1       21 0.27355891E-01 0.22270711E+02</pdfrwt>
<pdfrwt beam="2">  1       21 0.79656881E-03 0.22270711E+02</pdfrwt>
<totfact> 0.49318568E+07</totfact>
</mgrwt>
</event>
<event>
 4    1  0.4353697E+006  0.2330486E+02  0.7546771E-02  0.1686616E+00
         21   -1    0    0  503  501  0.00000000000E+00  0.00000000000E+00  0.84135582436E+00  0.84135582436E+00  0.00000000000E+00 0.  1.
         21   -1    0    0  504  502 -0.00000000000E+00 -0.00000000000E+00 -0.70539760822E+03  0.70539760822E+03  0.00000000000E+00 0.  1.
         21    1    1    2  503  502 -0.22611132651E+02  0.56438438947E+01 -0.45515516431E+03  0.45575140141E+03  0.00000000000E+00 0.  1.
         21    1    1    2  504  501  0.22611132651E+02 -0.56438438947E+01 -0.24940108808E+03  0.25048756263E+03  0.00000000000E+00 0.  1.
<mgrwt>
<rscale>  2 0.23304856E+02</rscale>
<asrwt>0</asrwt>
<pdfrwt beam="1">  1       21 0.12943894E-03 0.23304856E+02</pdfrwt>
<pdfrwt beam="2">  1       21 0.10852306E+00 0.23304856E+02</pdfrwt>
<totfact> 0.46043251E+07</totfact>
</mgrwt>
</event>
<event>
 4    1  0.4353697E+006  0.2352503E+02  0.7546771E-02  0.1683138E+00
         21   -1    0    0  503  501  0.00000000000E+00  0.00000000000E+00  0.82849542727E+01  0.82849542727E+01  0.00000000000E+00 0.  1.
         21   -1    0    0  504  502 -0.00000000000E+00 -0.00000000000E+00 -0.76415072935E+02  0.76415072935E+02  0.00000000000E+00 0.  1.
         21    1    1    2  503  502  0.41236295546E+01  0.23160804300E+02 -0.49088226712E+02  0.54434191261E+02  0.00000000000E+00 0.  1.
         21    1    1    2  504  501 -0.41236295546E+01 -0.23160804300E+02 -0.19041891951E+02  0.30265835947E+02  0.00000000000E+00 0.  1.
<mgrwt>
<rscale>  2 0.23525033E+02</rscale>
<asrwt>0</asrwt>
<pdfrwt beam="1">  1       21 0.12746084E-02 0.23525033E+02</pdfrwt>
<pdfrwt beam="2">  1       21 0.11756165E-01 0.23525033E+02</pdfrwt>
<totfact> 0.10649143E+08</totfact>
</mgrwt>
</event>
<event>
 4    1  0.4353697E+006  0.2238481E+02  0.7546771E-02  0.1701681E+00
         21   -1    0    0  503  501  0.00000000000E+00  0.00000000000E+00  0.10076381103E+03  0.10076381103E+03  0.00000000000E+00 0.  1.
         21   -1    0    0  504  502 -0.00000000000E+00 -0.00000000000E+00 -0.49965827634E+01  0.49965827634E+01  0.00000000000E+00 0.  1.
         21    1    1    2  503  502  0.17045353089E+02  0.14509847215E+02  0.44236441071E+02  0.49577640593E+02  0.00000000000E+00 0.  1.
         21    1    1    2  504  501 -0.17045353089E+02 -0.14509847215E+02  0.51530787192E+02  0.56182753196E+02  0.00000000000E+00 0.  1.
<mgrwt>
<rscale>  2 0.22384810E+02</rscale>
<asrwt>0</asrwt>
<pdfrwt beam="1">  1       21 0.15502123E-01 0.22384810E+02</pdfrwt>
<pdfrwt beam="2">  1       21 0.76870512E-03 0.22384810E+02</pdfrwt>
<totfact> 0.14058675E+08</totfact>
</mgrwt>
</event>
<event>
 4    1  0.4353697E+006  0.2339206E+02  0.7546771E-02  0.1685233E+00
         21   -1    0    0  503  501  0.00000000000E+00  0.00000000000E+00  0.14195140018E+03  0.14195140018E+03  0.00000000000E+00 0. -1.
         21   -1    0    0  504  502 -0.00000000000E+00 -0.00000000000E+00 -0.22414383435E+03  0.22414383435E+03  0.00000000000E+00 0.  1.
         21    1    1    2  503  502  0.20531740039E+02 -0.11208753964E+02 -0.22256300877E+03  0.22378892151E+03  0.00000000000E+00 0.  1.
         21    1    1    2  504  501 -0.20531740039E+02  0.11208753964E+02  0.14037057460E+03  0.14230631303E+03  0.00000000000E+00 0. -1.
<mgrwt>
<rscale>  2 0.23392061E+02</rscale>
<asrwt>0</asrwt>
<pdfrwt beam="1">  1       21 0.21838677E-01 0.23392061E+02</pdfrwt>
<pdfrwt beam="2">  1       21 0.34483667E-01 0.23392061E+02</pdfrwt>
<totfact> 0.16654372E+05</totfact>
</mgrwt>
</event>
<event>
 4    1  0.4353697E+006  0.2731475E+02  0.7546771E-02  0.1629820E+00
         21   -1    0    0  504  501  0.00000000000E+00  0.00000000000E+00  0.33617500036E+01  0.33617500036E+01  0.00000000000E+00 0.  1.
         21   -1    0    0  501  502 -0.00000000000E+00 -0.00000000000E+00 -0.14861575904E+04  0.14861575904E+04  0.00000000000E+00 0. -1.
         21    1    1    2  503  502 -0.20377049015E+02  0.18189876031E+02 -0.14283005822E+04  0.14285617414E+04  0.00000000000E+00 0. -1.
         21    1    1    2  504  503  0.20377049015E+02 -0.18189876031E+02 -0.54495258139E+02  0.60957599003E+02  0.00000000000E+00 0.  1.
<mgrwt>
<rscale>  2 0.27314753E+02</rscale>
<asrwt>0</asrwt>
<pdfrwt beam="1">  1       21 0.51719130E-03 0.27314753E+02</pdfrwt>
<pdfrwt beam="2">  1       21 0.22864008E+00 0.27314753E+02</pdfrwt>
<totfact> 0.10123050E+06</totfact>
</mgrwt>
</event>
<event>
 4    1  0.4353697E+006  0.3100548E+02  0.7546771E-02  0.1587233E+00
         21   -1    0    0  503  501  0.00000000000E+00  0.00000000000E+00  0.20903046827E+02  0.20903046827E+02  0.00000000000E+00 0. -1.
         21   -1    0    0  504  502 -0.00000000000E+00 -0.00000000000E+00 -0.69717721800E+02  0.69717721800E+02  0.00000000000E+00 0.  1.
         21    1    1    2  503  502  0.20609530746E+02 -0.23164342252E+02  0.20259087530E+01  0.31071591781E+02  0.00000000000E+00 0. -1.
         21    1    1    2  504  501 -0.20609530746E+02  0.23164342252E+02 -0.50840583726E+02  0.59549176846E+02  0.00000000000E+00 0.  1.
<mgrwt>
<rscale>  2 0.31005475E+02</rscale>
<asrwt>0</asrwt>
<pdfrwt beam="1">  1       21 0.32158533E-02 0.31005475E+02</pdfrwt>
<pdfrwt beam="2">  1       21 0.10725804E-01 0.31005475E+02</pdfrwt>
<totfact> 0.31767397E+07</totfact>
</mgrwt>
</event>
<event>
 4    1  0.4353697E+006  0.4189967E+02  0.7546771E-02  0.1494680E+00
         21   -1    0    0  503  501  0.00000000000E+00  0.00000000000E+00  0.92307471492E+01  0.92307471492E+01  0.00000000000E+00 0.  1.
         21   -1    0    0  504  502 -0.00000000000E+00 -0.00000000000E+00 -0.36410745856E+03  0.36410745856E+03  0.00000000000E+00 0.  1.
         21    1    1    2  503  502 -0.38657562917E+02 -0.16160904341E+02 -0.48426058179E+02  0.64036435804E+02  0.00000000000E+00 0.  1.
         21    1    1    2  504  501  0.38657562917E+02  0.16160904341E+02 -0.30645065324E+03  0.30930176991E+03  0.00000000000E+00 0.  1.
<mgrwt>
<rscale>  2 0.41899666E+02</rscale>
<asrwt>0</asrwt>
<pdfrwt beam="1">  1       21 0.14201150E-02 0.41899666E+02</pdfrwt>
<pdfrwt beam="2">  1       21 0.56016532E-01 0.41899666E+02</pdfrwt>
<totfact> 0.58362351E+06</totfact>
</mgrwt>
</event>
<event>
 4    1  0.4353697E+006  0.2278629E+02  0.7546771E-02  0.1694998E+00
         21   -1    0    0  502  501  0.00000000000E+00  0.00000000000E+00  0.39122658832E+01  0.39122658832E+01  0.00000000000E+00 0.  1.
         21   -1    0    0  503  502 -0.00000000000E+00 -0.00000000000E+00 -0.32007462076E+03  0.32007462076E+03  0.00000000000E+00 0.  1.
         21    1    1    2  503  504 -0.23253547310E+01  0.22667328122E+02 -0.28202081156E+03  0.28293984023E+03  0.00000000000E+00 0.  1.
         21    1    1    2  504  501  0.23253547310E+01 -0.22667328122E+02 -0.34141543313E+02  0.41047046405E+02  0.00000000000E+00 0.  1.
<mgrwt>
<rscale>  2 0.22786291E+02</rscale>
<asrwt>0</asrwt>
<pdfrwt beam="1">  1       21 0.60188683E-03 0.22786291E+02</pdfrwt>
<pdfrwt beam="2">  1       21 0.49242268E-01 0.22786291E+02</pdfrwt>
<totfact> 0.25139363E+07</totfact>
</mgrwt>
</event>
<event>
 4    1  0.4353697E+006  0.2192337E+02  0.7546771E-02  0.1709581E+00
         21   -1    0    0  502  501  0.00000000000E+00  0.00000000000E+00  0.15995153680E+03  0.15995153680E+03  0.00000000000E+00 0.  1.
         21   -1    0    0  504  502 -0.00000000000E+00 -0.00000000000E+00 -0.30811865663E+01  0.30811865663E+01  0.00000000000E+00 0.  1.
         21    1    1    2  503  501 -0.78025821182E+01 -0.20487894375E+02  0.91263967774E+02  0.93860246736E+02  0.00000000000E+00 0.  1.
         21    1    1    2  504  503  0.78025821182E+01  0.20487894375E+02  0.65606382456E+02  0.69172476626E+02  0.00000000000E+00 0.  1.
<mgrwt>
<rscale>  2 0.21923369E+02</rscale>
<asrwt>0</asrwt>
<pdfrwt beam="1">  1       21 0.24607922E-01 0.21923369E+02</pdfrwt>
<pdfrwt beam="2">  1       21 0.47402883E-03 0.21923369E+02</pdfrwt>
<totfact> 0.12796054E+08</totfact>
</mgrwt>
</event>
<event>
 4    1  0.4353697E+006  0.2468937E+02  0.7546771E-02  0.1665504E+00
         21   -1    0    0  502  501  0.00000000000E+00  0.00000000000E+00  0.10309956511E+03  0.10309956511E+03  0.00000000000E+00 0. -1.
         21   -1    0    0  503  502 -0.00000000000E+00 -0.00000000000E+00 -0.57711855015E+02  0.57711855015E+02  0.00000000000E+00 0. -1.
         21    1    1    2  503  504  0.17433798358E+02  0.17482210709E+02 -0.53481941550E+02  0.58905713547E+02  0.00000000000E+00 0. -1.
         21    1    1    2  504  501 -0.17433798358E+02 -0.17482210709E+02  0.98869651643E+02  0.10190570657E+03  0.00000000000E+00 0. -1.
<mgrwt>
<rscale>  2 0.24689371E+02</rscale>
<asrwt>0</asrwt>
<pdfrwt beam="1">  1       21 0.15861471E-01 0.24689371E+02</pdfrwt>
<pdfrwt beam="2">  1       21 0.88787470E-02 0.24689371E+02</pdfrwt>
<totfact> 0.30671640E+06</totfact>
</mgrwt>
</event>
<event>
 4    1  0.4353697E+006  0.2188644E+02  0.7546771E-02  0.1710223E+00
         21   -1    0    0  502  501  0.00000000000E+00  0.00000000000E+00  0.17355770516E+03  0.17355770516E+03  0.00000000000E+00 0.  1.
         21   -1    0    0  503  502 -0.00000000000E+00 -0.00000000000E+00 -0.94666800580E+01  0.94666800580E+01  0.00000000000E+00 0.  1.
         21    1    1    2  503  504  0.20974735188E+02  0.62511451972E+01  0.50200255366E+01  0.22454776527E+02  0.00000000000E+00 0.  1.
         21    1    1    2  504  501 -0.20974735188E+02 -0.62511451972E+01  0.15907099957E+03  0.16056960869E+03  0.00000000000E+00 0.  1.
<mgrwt>
<rscale>  2 0.21886442E+02</rscale>
<asrwt>0</asrwt>
<pdfrwt beam="1">  1       21 0.26701183E-01 0.21886442E+02</pdfrwt>
<pdfrwt beam="2">  1       21 0.14564125E-02 0.21886442E+02</pdfrwt>
<totfact> 0.20712197E+07</totfact>
</mgrwt>
</event>
<event>
 4    1  0.4353697E+006  0.2151311E+02  0.7546771E-02  0.1716811E+00
         21   -1    0    0  504  501  0.00000000000E+00  0.00000000000E+00  0.32459473756E+02  0.32459473756E+02  0.00000000000E+00 0.  1.
         21   -1    0    0  503  502 -0.00000000000E+00 -0.00000000000E+00 -0.26162413259E+03  0.26162413259E+03  0.00000000000E+00 0. -1.
         21    1    1    2  503  501  0.16215505757E+02 -0.14137590584E+02 -0.25756119653E+03  0.25845808954E+03  0.00000000000E+00 0. -1.
         21    1    1    2  504  502 -0.16215505757E+02  0.14137590584E+02  0.28396537693E+02  0.35625516802E+02  0.00000000000E+00 0.  1.
<mgrwt>
<rscale>  2 0.21513114E+02</rscale>
<asrwt>0</asrwt>
<pdfrwt beam="1">  1       21 0.49937652E-02 0.21513114E+02</pdfrwt>
<pdfrwt beam="2">  1       21 0.40249866E-01 0.21513114E+02</pdfrwt>
<totfact> 0.14429703E+06</totfact>
</mgrwt>
</event>
<event>
 4    1  0.4353697E+006  0.2013338E+02  0.7546771E-02  0.1742688E+00
         21   -1    0    0  504  501  0.00000000000E+00  0.00000000000E+00  0.14387304913E+02  0.14387304913E+02  0.00000000000E+00 0. -1.
         21   -1    0    0  503  502 -0.00000000000E+00 -0.00000000000E+00 -0.32729296378E+02  0.32729296378E+02  0.00000000000E+00 0. -1.
         21    1    1    2  503  501  0.70642939916E+01 -0.18853352959E+02 -0.38245871607E+00  0.20137016713E+02  0.00000000000E+00 0. -1.
         21    1    1    2  504  502 -0.70642939916E+01  0.18853352959E+02 -0.17959532749E+02  0.26979584577E+02  0.00000000000E+00 0. -1.
<mgrwt>
<rscale>  2 0.20133384E+02</rscale>
<asrwt>0</asrwt>
<pdfrwt beam="1">  1       21 0.22134315E-02 0.20133384E+02</pdfrwt>
<pdfrwt beam="2">  1       21 0.50352764E-02 0.20133384E+02</pdfrwt>
<totfact> 0.17402582E+08</totfact>
</mgrwt>
</event>
<event>
 4    1  0.4353697E+006  0.2149259E+02  0.7546771E-02  0.1717178E+00
         21   -1    0    0  503  501  0.00000000000E+00  0.00000000000E+00  0.10163580691E+03  0.10163580691E+03  0.00000000000E+00 0.  1.
         21   -1    0    0  504  502 -0.00000000000E+00 -0.00000000000E+00 -0.86693810506E+01  0.86693810506E+01  0.00000000000E+00 0.  1.
         21    1    1    2  503  502 -0.17535693595E+02  0.12427029467E+02  0.84421265817E+01  0.23091147923E+02  0.00000000000E+00 0.  1.
         21    1    1    2  504  501  0.17535693595E+02 -0.12427029467E+02  0.84524299274E+02  0.87214040033E+02  0.00000000000E+00 0.  1.
<mgrwt>
<rscale>  2 0.21492594E+02</rscale>
<asrwt>0</asrwt>
<pdfrwt beam="1">  1       21 0.15636277E-01 0.21492594E+02</pdfrwt>
<pdfrwt beam="2">  1       21 0.13337510E-02 0.21492594E+02</pdfrwt>
<totfact> 0.59929741E+07</totfact>
</mgrwt>
</event>
<event>
 4    1  0.4353697E+006  0.2348001E+02  0.7546771E-02  0.1683845E+00
         21   -1    0    0  504  501  0.00000000000E+00  0.00000000000E+00  0.23604595152E+02  0.23604595152E+02  0.00000000000E+00 0.  1.
         21   -1    0    0  503  502 -0.00000000000E+00 -0.00000000000E+00 -0.10577786622E+03  0.10577786622E+03  0.00000000000E+00 0. -1.
         21    1    1    2  503  501  0.19441731780E+02 -0.13165474140E+02 -0.98190965768E+02  0.10095928091E+03  0.00000000000E+00 0. -1.
         21    1    1    2  504  502 -0.19441731780E+02  0.13165474140E+02  0.16017694700E+02  0.28423180460E+02  0.00000000000E+00 0.  1.
<mgrwt>
<rscale>  2 0.23480005E+02</rscale>
<asrwt>0</asrwt>
<pdfrwt beam="1">  1       21 0.36314761E-02 0.23480005E+02</pdfrwt>
<pdfrwt beam="2">  1       21 0.16273518E-01 0.23480005E+02</pdfrwt>
<totfact> 0.12232023E+07</totfact>
</mgrwt>
</event>
<event>
 4    1  0.4353697E+006  0.2069361E+02  0.7546771E-02  0.1731877E+00
         21   -1    0    0  503  501  0.00000000000E+00  0.00000000000E+00  0.14516952706E+03  0.14516952706E+03  0.00000000000E+00 0.  1.
         21   -1    0    0  504  502 -0.00000000000E+00 -0.00000000000E+00 -0.45132763105E+02  0.45132763105E+02  0.00000000000E+00 0. -1.
         21    1    1    2  503  502  0.18066498299E+02 -0.10090935411E+02 -0.41970734588E+02  0.46794955926E+02  0.00000000000E+00 0. -1.
         21    1    1    2  504  501 -0.18066498299E+02  0.10090935411E+02  0.14200749854E+03  0.14350733424E+03  0.00000000000E+00 0.  1.
<mgrwt>
<rscale>  2 0.20693606E+02</rscale>
<asrwt>0</asrwt>
<pdfrwt beam="1">  1       21 0.22333773E-01 0.20693606E+02</pdfrwt>
<pdfrwt beam="2">  1       21 0.69435021E-02 0.20693606E+02</pdfrwt>
<totfact> 0.24668084E+06</totfact>
</mgrwt>
</event>
<event>
 4    1  0.4353697E+006  0.2251495E+02  0.7546771E-02  0.1699495E+00
         21   -1    0    0  502  501  0.00000000000E+00  0.00000000000E+00  0.36110645231E+03  0.36110645231E+03  0.00000000000E+00 0. -1.
         21   -1    0    0  504  502 -0.00000000000E+00 -0.00000000000E+00 -0.14624693793E+01  0.14624693793E+01  0.00000000000E+00 0. -1.
         21    1    1    2  503  501 -0.69467874628E+01 -0.21416472100E+02  0.14351389287E+03  0.14526926922E+03  0.00000000000E+00 0. -1.
         21    1    1    2  504  503  0.69467874628E+01  0.21416472100E+02  0.21613009006E+03  0.21729965247E+03  0.00000000000E+00 0. -1.
<mgrwt>
<rscale>  2 0.22514954E+02</rscale>
<asrwt>0</asrwt>
<pdfrwt beam="1">  1       21 0.55554768E-01 0.22514954E+02</pdfrwt>
<pdfrwt beam="2">  1       21 0.22499558E-03 0.22514954E+02</pdfrwt>
<totfact> 0.83585251E+07</totfact>
</mgrwt>
</event>
<event>
 4    1  0.4353697E+006  0.2138538E+02  0.7546771E-02  0.1719104E+00
         21   -1    0    0  503  501  0.00000000000E+00  0.00000000000E+00  0.28778945456E+02  0.28778945456E+02  0.00000000000E+00 0.  1.
         21   -1    0    0  504  502 -0.00000000000E+00 -0.00000000000E+00 -0.59994754502E+02  0.59994754502E+02  0.00000000000E+00 0.  1.
         21    1    1    2  503  502  0.11226726482E+02  0.18201507946E+02 -0.53664863993E+02  0.57768952789E+02  0.00000000000E+00 0.  1.
         21    1    1    2  504  501 -0.11226726482E+02 -0.18201507946E+02  0.22449054947E+02  0.31004747169E+02  0.00000000000E+00 0.  1.
<mgrwt>
<rscale>  2 0.21385375E+02</rscale>
<asrwt>0</asrwt>
<pdfrwt beam="1">  1       21 0.44275301E-02 0.21385375E+02</pdfrwt>
<pdfrwt beam="2">  1       21 0.92299622E-02 0.21385375E+02</pdfrwt>
<totfact> 0.22698093E+07</totfact>
</mgrwt>
</event>
<event>
 4    1  0.4353697E+006  0.2100546E+02  0.7546771E-02  0.1726042E+00
         21   -1    0    0  503  501  0.00000000000E+00  0.00000000000E+00  0.49803647732E+01  0.49803647732E+01  0.00000000000E+00 0. -1.
         21   -1    0    0  504  502 -0.00000000000E+00 -0.00000000000E+00 -0.35478906675E+03  0.35478906675E+03  0.00000000000E+00 0.  1.
         21    1    1    2  503  502 -0.71362987352E+01 -0.19756073391E+02 -0.33071938359E+03  0.33138578708E+03  0.00000000000E+00 0.  1.
         21    1    1    2  504  501  0.71362987352E+01  0.19756073391E+02 -0.19089318385E+02  0.28383644443E+02  0.00000000000E+00 0. -1.
<mgrwt>
<rscale>  2 0.21005456E+02</rscale>
<asrwt>0</asrwt>
<pdfrwt beam="1">  1       21 0.76620971E-03 0.21005456E+02</pdfrwt>
<pdfrwt beam="2">  1       21 0.54582952E-01 0.21005456E+02</pdfrwt>
<totfact> 0.14136557E+07</totfact>
</mgrwt>
</event>
<event>
 4    1  0.4353697E+006  0.3772598E+02  0.7546771E-02  0.1525645E+00
         21   -1    0    0  503  501  0.00000000000E+00  0.00000000000E+00  0.69390314790E+01  0.69390314790E+01  0.00000000000E+00 0. -1.
         21   -1    0    0  504  502 -0.00000000000E+00 -0.00000000000E+00 -0.20742005758E+03  0.20742005758E+03  0.00000000000E+00 0. -1.
         21    1    1    2  503  502  0.89212697185E+01 -0.36655978005E+02 -0.11155671347E+03  0.11776311008E+03  0.00000000000E+00 0. -1.
         21    1    1    2  504  501 -0.89212697185E+01  0.36655978005E+02 -0.88924312635E+02  0.96595978977E+02  0.00000000000E+00 0. -1.
<mgrwt>
<rscale>  2 0.37725983E+02</rscale>
<asrwt>0</asrwt>
<pdfrwt beam="1">  1       21 0.10675434E-02 0.37725983E+02</pdfrwt>
<pdfrwt beam="2">  1       21 0.31910777E-01 0.37725983E+02</pdfrwt>
<totfact> 0.26626777E+07</totfact>
</mgrwt>
</event>
<event>
 4    1  0.4353697E+006  0.2149262E+02  0.7546771E-02  0.1717178E+00
         21   -1    0    0  504  501  0.00000000000E+00  0.00000000000E+00  0.85416957606E+02  0.85416957606E+02  0.00000000000E+00 0. -1.
         21   -1    0    0  503  502 -0.00000000000E+00 -0.00000000000E+00 -0.75498419534E+01  0.75498419534E+01  0.00000000000E+00 0. -1.
         21    1    1    2  503  501  0.20131921808E+02  0.75258481771E+01  0.14175001115E+02  0.25746132196E+02  0.00000000000E+00 0. -1.
         21    1    1    2  504  502 -0.20131921808E+02 -0.75258481771E+01  0.63692114538E+02  0.67220667363E+02  0.00000000000E+00 0. -1.
<mgrwt>
<rscale>  2 0.21492619E+02</rscale>
<asrwt>0</asrwt>
<pdfrwt beam="1">  1       21 0.13141070E-01 0.21492619E+02</pdfrwt>
<pdfrwt beam="2">  1       21 0.11615142E-02 0.21492619E+02</pdfrwt>
<totfact> 0.99064245E+07</totfact>
</mgrwt>
</event>
<event>
 4    1  0.4353697E+006  0.3537852E+02  0.7546771E-02  0.1545265E+00
         21   -1    0    0  503  501  0.00000000000E+00  0.00000000000E+00  0.11599987710E+02  0.11599987710E+02  0.00000000000E+00 0.  1.
         21   -1    0    0  501  502 -0.00000000000E+00 -0.00000000000E+00 -0.11015236989E+03  0.11015236989E+03  0.00000000000E+00 0.  1.
         21    1    1    2  503  504  0.11214237496E+02  0.33554141412E+02 -0.40571302541E+02  0.53830011316E+02  0.00000000000E+00 0.  1.
         21    1    1    2  504  502 -0.11214237496E+02 -0.33554141412E+02 -0.57981079637E+02  0.67922346281E+02  0.00000000000E+00 0.  1.
<mgrwt>
<rscale>  2 0.35378518E+02</rscale>
<asrwt>0</asrwt>
<pdfrwt beam="1">  1       21 0.17846135E-02 0.35378518E+02</pdfrwt>
<pdfrwt beam="2">  1       21 0.16946518E-01 0.35378518E+02</pdfrwt>
<totfact> 0.37403665E+07</totfact>
</mgrwt>
</event>
<event>
 4    1  0.4353697E+006  0.2665051E+02  0.7546771E-02  0.1638367E+00
         21   -1    0    0  504  501  0.00000000000E+00  0.00000000000E+00  0.24895998093E+02  0.24895998093E+02  0.00000000000E+00 0.  1.
         21   -1    0    0  503  502 -0.00000000000E+00 -0.00000000000E+00 -0.40887510756E+02  0.40887510756E+02  0.00000000000E+00 0.  1.
         21    1    1    2  503  501  0.17119967910E+02 -0.20424410525E+02 -0.26079172533E+02  0.37287706909E+02  0.00000000000E+00 0.  1.
         21    1    1    2  504  502 -0.17119967910E+02  0.20424410525E+02  0.10087659870E+02  0.28495801939E+02  0.00000000000E+00 0.  1.
<mgrwt>
<rscale>  2 0.26650513E+02</rscale>
<asrwt>0</asrwt>
<pdfrwt beam="1">  1       21 0.38301536E-02 0.26650513E+02</pdfrwt>
<pdfrwt beam="2">  1       21 0.62903861E-02 0.26650513E+02</pdfrwt>
<totfact> 0.56190489E+07</totfact>
</mgrwt>
</event>
<event>
 4    1  0.4353697E+006  0.2335190E+02  0.7546771E-02  0.1685869E+00
         21   -1    0    0  504  501  0.00000000000E+00  0.00000000000E+00  0.17870916018E+02  0.17870916018E+02  0.00000000000E+00 0.  1.
         21   -1    0    0  501  502 -0.00000000000E+00 -0.00000000000E+00 -0.43207448698E+02  0.43207448698E+02  0.00000000000E+00 0.  1.
         21    1    1    2  503  502  0.22140347661E+02 -0.74240308829E+01 -0.29221000139E+02  0.37405588864E+02  0.00000000000E+00 0.  1.
         21    1    1    2  504  503 -0.22140347661E+02  0.74240308829E+01  0.38844674582E+01  0.23672775852E+02  0.00000000000E+00 0.  1.
<mgrwt>
<rscale>  2 0.23351900E+02</rscale>
<asrwt>0</asrwt>
<pdfrwt beam="1">  1       21 0.27493717E-02 0.23351900E+02</pdfrwt>
<pdfrwt beam="2">  1       21 0.66472998E-02 0.23351900E+02</pdfrwt>
<totfact> 0.83508708E+07</totfact>
</mgrwt>
</event>
<event>
 4    1  0.4353697E+006  0.3171041E+02  0.7546771E-02  0.1579917E+00
         21   -1    0    0  503  501  0.00000000000E+00  0.00000000000E+00  0.41799624943E+02  0.41799624943E+02  0.00000000000E+00 0. -1.
         21   -1    0    0  504  502 -0.00000000000E+00 -0.00000000000E+00 -0.26528989766E+02  0.26528989766E+02  0.00000000000E+00 0. -1.
         21    1    1    2  503  502 -0.31675293055E+02  0.14918439778E+01 -0.27947130750E+01  0.31833319176E+02  0.00000000000E+00 0. -1.
         21    1    1    2  504  501  0.31675293055E+02 -0.14918439778E+01  0.18065348252E+02  0.36495295533E+02  0.00000000000E+00 0. -1.
<mgrwt>
<rscale>  2 0.31710405E+02</rscale>
<asrwt>0</asrwt>
<pdfrwt beam="1">  1       21 0.64307115E-02 0.31710405E+02</pdfrwt>
<pdfrwt beam="2">  1       21 0.40813830E-02 0.31710405E+02</pdfrwt>
<totfact> 0.50999232E+07</totfact>
</mgrwt>
</event>
<event>
 4    1  0.4353697E+006  0.2258273E+02  0.7546771E-02  0.1698365E+00
         21   -1    0    0  504  501  0.00000000000E+00  0.00000000000E+00  0.94323830445E+02  0.94323830445E+02  0.00000000000E+00 0.  1.
         21   -1    0    0  503  502 -0.00000000000E+00 -0.00000000000E+00 -0.11939268622E+02  0.11939268622E+02  0.00000000000E+00 0.  1.
         21    1    1    2  503  501  0.22071542890E+02 -0.47777433490E+01  0.80493488807E+02  0.83601325213E+02  0.00000000000E+00 0.  1.
         21    1    1    2  504  502 -0.22071542890E+02  0.47777433490E+01  0.18910730160E+01  0.22661773854E+02  0.00000000000E+00 0.  1.
<mgrwt>
<rscale>  2 0.22582733E+02</rscale>
<asrwt>0</asrwt>
<pdfrwt beam="1">  1       21 0.14511358E-01 0.22582733E+02</pdfrwt>
<pdfrwt beam="2">  1       21 0.18368106E-02 0.22582733E+02</pdfrwt>
<totfact> 0.42372581E+07</totfact>
</mgrwt>
</event>
<event>
 4    1  0.4353697E+006  0.2233302E+02  0.7546771E-02  0.1702555E+00
         21   -1    0    0  504  501  0.00000000000E+00  0.00000000000E+00  0.13917567067E+03  0.13917567067E+03  0.00000000000E+00 0. -1.
         21   -1    0    0  503  502 -0.00000000000E+00 -0.00000000000E+00 -0.16529313744E+02  0.16529313744E+02  0.00000000000E+00 0. -1.
         21    1    1    2  503  501 -0.22289834954E+02 -0.13882190324E+01  0.13022114835E+03  0.13212233487E+03  0.00000000000E+00 0. -1.
         21    1    1    2  504  502  0.22289834954E+02  0.13882190324E+01 -0.75747914227E+01  0.23582649543E+02  0.00000000000E+00 0. -1.
<mgrwt>
<rscale>  2 0.22333023E+02</rscale>
<asrwt>0</asrwt>
<pdfrwt beam="1">  1       21 0.21411641E-01 0.22333023E+02</pdfrwt>
<pdfrwt beam="2">  1       21 0.25429714E-02 0.22333023E+02</pdfrwt>
<totfact> 0.13108364E+07</totfact>
</mgrwt>
</event>
<event>
 4    1  0.4353697E+006  0.2241523E+02  0.7546771E-02  0.1701168E+00
         21   -1    0    0  504  501  0.00000000000E+00  0.00000000000E+00  0.73609426845E+02  0.73609426845E+02  0.00000000000E+00 0. -1.
         21   -1    0    0  501  502 -0.00000000000E+00 -0.00000000000E+00 -0.16060862146E+02  0.16060862146E+02  0.00000000000E+00 0. -1.
         21    1    1    2  503  502 -0.15882268904E+02  0.15817590594E+02 -0.52237862226E+01  0.23015876699E+02  0.00000000000E+00 0. -1.
         21    1    1    2  504  503  0.15882268904E+02 -0.15817590594E+02  0.62772350921E+02  0.66654412291E+02  0.00000000000E+00 0. -1.
<mgrwt>
<rscale>  2 0.22415232E+02</rscale>
<asrwt>0</asrwt>
<pdfrwt beam="1">  1       21 0.11324527E-01 0.22415232E+02</pdfrwt>
<pdfrwt beam="2">  1       21 0.24709019E-02 0.22415232E+02</pdfrwt>
<totfact> 0.40682783E+07</totfact>
</mgrwt>
</event>
<event>
 4    1  0.4353697E+006  0.2623104E+02  0.7546771E-02  0.1643925E+00
         21   -1    0    0  503  501  0.00000000000E+00  0.00000000000E+00  0.40171657390E+02  0.40171657390E+02  0.00000000000E+00 0. -1.
         21   -1    0    0  504  502 -0.00000000000E+00 -0.00000000000E+00 -0.29839890751E+02  0.29839890751E+02  0.00000000000E+00 0.  1.
         21    1    1    2  503  502 -0.44553750342E+01 -0.25849896054E+02 -0.17681844880E+02  0.31634081796E+02  0.00000000000E+00 0.  1.
         21    1    1    2  504  501  0.44553750342E+01  0.25849896054E+02  0.28013611519E+02  0.38377466345E+02  0.00000000000E+00 0. -1.
<mgrwt>
<rscale>  2 0.26231041E+02</rscale>
<asrwt>0</asrwt>
<pdfrwt beam="1">  1       21 0.61802550E-02 0.26231041E+02</pdfrwt>
<pdfrwt beam="2">  1       21 0.45907524E-02 0.26231041E+02</pdfrwt>
<totfact> 0.43206840E+07</totfact>
</mgrwt>
</event>
<event>
 4    1  0.4353697E+006  0.2154267E+02  0.7546771E-02  0.1716283E+00
         21   -1    0    0  503  501  0.00000000000E+00  0.00000000000E+00  0.22993611091E+03  0.22993611091E+03  0.00000000000E+00 0. -1.
         21   -1    0    0  501  502 -0.00000000000E+00 -0.00000000000E+00 -0.24375881289E+01  0.24375881289E+01  0.00000000000E+00 0. -1.
         21    1    1    2  503  504  0.10160454449E+02 -0.18996094294E+02  0.16193502265E+03  0.16336167848E+03  0.00000000000E+00 0. -1.
         21    1    1    2  504  502 -0.10160454449E+02  0.18996094294E+02  0.65563500123E+02  0.69012020557E+02  0.00000000000E+00 0. -1.
<mgrwt>
<rscale>  2 0.21542665E+02</rscale>
<asrwt>0</asrwt>
<pdfrwt beam="1">  1       21 0.35374769E-01 0.21542665E+02</pdfrwt>
<pdfrwt beam="2">  1       21 0.37501374E-03 0.21542665E+02</pdfrwt>
<totfact> 0.93026230E+07</totfact>
</mgrwt>
</event>
<event>
 4    1  0.4353697E+006  0.2116904E+02  0.7546771E-02  0.1723032E+00
         21   -1    0    0  504  501  0.00000000000E+00  0.00000000000E+00  0.11694484117E+02  0.11694484117E+02  0.00000000000E+00 0. -1.
         21   -1    0    0  503  502 -0.00000000000E+00 -0.00000000000E+00 -0.57067064896E+02  0.57067064896E+02  0.00000000000E+00 0. -1.
         21    1    1    2  503  501 -0.49929193045E+01 -0.20571805295E+02 -0.29805070245E+01  0.21377835213E+02  0.00000000000E+00 0. -1.
         21    1    1    2  504  502  0.49929193045E+01  0.20571805295E+02 -0.42392073754E+02  0.47383713800E+02  0.00000000000E+00 0. -1.
<mgrwt>
<rscale>  2 0.21169044E+02</rscale>
<asrwt>0</asrwt>
<pdfrwt beam="1">  1       21 0.17991514E-02 0.21169044E+02</pdfrwt>
<pdfrwt beam="2">  1       21 0.87795484E-02 0.21169044E+02</pdfrwt>
<totfact> 0.99194188E+07</totfact>
</mgrwt>
</event>
<event>
 4    1  0.4353697E+006  0.2275273E+02  0.7546771E-02  0.1695550E+00
         21   -1    0    0  504  501  0.00000000000E+00  0.00000000000E+00  0.41940557646E+02  0.41940557646E+02  0.00000000000E+00 0. -1.
         21   -1    0    0  503  502 -0.00000000000E+00 -0.00000000000E+00 -0.73050733791E+02  0.73050733791E+02  0.00000000000E+00 0. -1.
         21    1    1    2  503  501  0.13751030641E+02  0.18127209911E+02 -0.67968623752E+02  0.71675800642E+02  0.00000000000E+00 0. -1.
         21    1    1    2  504  502 -0.13751030641E+02 -0.18127209911E+02  0.36858447607E+02  0.43315490795E+02  0.00000000000E+00 0. -1.
<mgrwt>
<rscale>  2 0.22752727E+02</rscale>
<asrwt>0</asrwt>
<pdfrwt beam="1">  1       21 0.64523936E-02 0.22752727E+02</pdfrwt>
<pdfrwt beam="2">  1       21 0.11238574E-01 0.22752727E+02</pdfrwt>
<totfact> 0.91097415E+06</totfact>
</mgrwt>
</event>
<event>
 4    1  0.4353697E+006  0.3569307E+02  0.7546771E-02  0.1542531E+00
         21   -1    0    0  504  501  0.00000000000E+00  0.00000000000E+00  0.31736070053E+03  0.31736070053E+03  0.00000000000E+00 0. -1.
         21   -1    0    0  501  502 -0.00000000000E+00 -0.00000000000E+00 -0.35689087259E+02  0.35689087259E+02  0.00000000000E+00 0. -1.
         21    1    1    2  503  502 -0.95614195752E+01 -0.34388580226E+02 -0.25465164973E+02  0.43845978394E+02  0.00000000000E+00 0. -1.
         21    1    1    2  504  503  0.95614195752E+01  0.34388580226E+02  0.30713677825E+03  0.30920380940E+03  0.00000000000E+00 0. -1.
<mgrwt>
<rscale>  2 0.35693069E+02</rscale>
<asrwt>0</asrwt>
<pdfrwt beam="1">  1       21 0.48824721E-01 0.35693069E+02</pdfrwt>
<pdfrwt beam="2">  1       21 0.54906290E-02 0.35693069E+02</pdfrwt>
<totfact> 0.89107571E+05</totfact>
</mgrwt>
</event>
<event>
 4    1  0.4353697E+006  0.2182532E+02  0.7546771E-02  0.1711291E+00
         21   -1    0    0  503  501  0.00000000000E+00  0.00000000000E+00  0.22599034507E+02  0.22599034507E+02  0.00000000000E+00 0.  1.
         21   -1    0    0  504  502 -0.00000000000E+00 -0.00000000000E+00 -0.21082961773E+02  0.21082961773E+02  0.00000000000E+00 0. -1.
         21    1    1    2  503  502 -0.11242613622E+02  0.18706906979E+02  0.10896737226E+01  0.21852508291E+02  0.00000000000E+00 0.  1.
         21    1    1    2  504  501  0.11242613622E+02 -0.18706906979E+02  0.42639901100E+00  0.21829487990E+02  0.00000000000E+00 0. -1.
<mgrwt>
<rscale>  2 0.21825323E+02</rscale>
<asrwt>0</asrwt>
<pdfrwt beam="1">  1       21 0.34767745E-02 0.21825323E+02</pdfrwt>
<pdfrwt beam="2">  1       21 0.32435326E-02 0.21825323E+02</pdfrwt>
<totfact> 0.17717074E+08</totfact>
</mgrwt>
</event>
<event>
 4    1  0.4353697E+006  0.2811481E+02  0.7546771E-02  0.1619913E+00
         21   -1    0    0  504  501  0.00000000000E+00  0.00000000000E+00  0.36354349912E+02  0.36354349912E+02  0.00000000000E+00 0. -1.
         21   -1    0    0  503  502 -0.00000000000E+00 -0.00000000000E+00 -0.24370052944E+02  0.24370052944E+02  0.00000000000E+00 0. -1.
         21    1    1    2  503  501  0.17532020946E+02  0.21978865560E+02  0.15961408949E+02  0.32329690153E+02  0.00000000000E+00 0. -1.
         21    1    1    2  504  502 -0.17532020946E+02 -0.21978865560E+02 -0.39771119809E+01  0.28394712703E+02  0.00000000000E+00 0. -1.
<mgrwt>
<rscale>  2 0.28114806E+02</rscale>
<asrwt>0</asrwt>
<pdfrwt beam="1">  1       21 0.55929769E-02 0.28114806E+02</pdfrwt>
<pdfrwt beam="2">  1       21 0.37492389E-02 0.28114806E+02</pdfrwt>
<totfact> 0.71204804E+07</totfact>
</mgrwt>
</event>
<event>
 4    1  0.4353697E+006  0.3568087E+02  0.7546771E-02  0.1542636E+00
         21   -1    0    0  503  501  0.00000000000E+00  0.00000000000E+00  0.20707766411E+03  0.20707766411E+03  0.00000000000E+00 0. -1.
         21   -1    0    0  504  502 -0.00000000000E+00 -0.00000000000E+00 -0.83704336749E+01  0.83704336749E+01  0.00000000000E+00 0. -1.
         21    1    1    2  503  502 -0.21226467910E+02  0.28680336765E+02  0.15486062330E+03  0.15891802071E+03  0.00000000000E+00 0. -1.
         21    1    1    2  504  501  0.21226467910E+02 -0.28680336765E+02  0.43846607129E+02  0.56530077070E+02  0.00000000000E+00 0. -1.
<mgrwt>
<rscale>  2 0.35680872E+02</rscale>
<asrwt>0</asrwt>
<pdfrwt beam="1">  1       21 0.31858098E-01 0.35680872E+02</pdfrwt>
<pdfrwt beam="2">  1       21 0.12877592E-02 0.35680872E+02</pdfrwt>
<totfact> 0.19859163E+07</totfact>
</mgrwt>
</event>
<event>
 4    1  0.4353697E+006  0.2219892E+02  0.7546771E-02  0.1704834E+00
         21   -1    0    0  504  501  0.00000000000E+00  0.00000000000E+00  0.54521140031E+02  0.54521140031E+02  0.00000000000E+00 0.  1.
         21   -1    0    0  503  502 -0.00000000000E+00 -0.00000000000E+00 -0.91031188266E+01  0.91031188266E+01  0.00000000000E+00 0.  1.
         21    1    1    2  503  501 -0.20485288803E+02  0.85524924996E+01  0.20029837657E+02  0.29899608390E+02  0.00000000000E+00 0.  1.
         21    1    1    2  504  502  0.20485288803E+02 -0.85524924996E+01  0.25388183547E+02  0.33724650467E+02  0.00000000000E+00 0.  1.
<mgrwt>
<rscale>  2 0.22198923E+02</rscale>
<asrwt>0</asrwt>
<pdfrwt beam="1">  1       21 0.83878675E-02 0.22198923E+02</pdfrwt>
<pdfrwt beam="2">  1       21 0.14004798E-02 0.22198923E+02</pdfrwt>
<totfact> 0.15861124E+08</totfact>
</mgrwt>
</event>
<event>
 4    1  0.4353697E+006  0.2171665E+02  0.7546771E-02  0.1713199E+00
         21   -1    0    0  503  501  0.00000000000E+00  0.00000000000E+00  0.19017250263E+02  0.19017250263E+02  0.00000000000E+00 0. -1.
         21   -1    0    0  501  502 -0.00000000000E+00 -0.00000000000E+00 -0.32999989660E+02  0.32999989660E+02  0.00000000000E+00 0. -1.
         21    1    1    2  503  504  0.16208407177E+02  0.14453381214E+02  0.59740955512E+01  0.22523376954E+02  0.00000000000E+00 0. -1.
         21    1    1    2  504  502 -0.16208407177E+02 -0.14453381214E+02 -0.19956834948E+02  0.29493862970E+02  0.00000000000E+00 0. -1.
<mgrwt>
<rscale>  2 0.21716645E+02</rscale>
<asrwt>0</asrwt>
<pdfrwt beam="1">  1       21 0.29257308E-02 0.21716645E+02</pdfrwt>
<pdfrwt beam="2">  1       21 0.50769215E-02 0.21716645E+02</pdfrwt>
<totfact> 0.11435833E+08</totfact>
</mgrwt>
</event>
<event>
 4    1  0.4353697E+006  0.4185759E+02  0.7546771E-02  0.1494970E+00
         21   -1    0    0  503  501  0.00000000000E+00  0.00000000000E+00  0.55661000097E+03  0.55661000097E+03  0.00000000000E+00 0. -1.
         21   -1    0    0  501  502 -0.00000000000E+00 -0.00000000000E+00 -0.11509776114E+02  0.11509776114E+02  0.00000000000E+00 0.  1.
         21    1    1    2  503  504 -0.41704227971E+02 -0.35798045757E+01  0.51467128616E+03  0.51637059408E+03  0.00000000000E+00 0. -1.
         21    1    1    2  504  502  0.41704227971E+02  0.35798045757E+01  0.30428938691E+02  0.51749183001E+02  0.00000000000E+00 0.  1.
<mgrwt>
<rscale>  2 0.41857588E+02</rscale>
<asrwt>0</asrwt>
<pdfrwt beam="1">  1       21 0.85632287E-01 0.41857588E+02</pdfrwt>
<pdfrwt beam="2">  1       21 0.17707352E-02 0.41857588E+02</pdfrwt>
<totfact> 0.16998404E+06</totfact>
</mgrwt>
</event>
<event>
 4    1  0.4353697E+006  0.2116372E+02  0.7546771E-02  0.1723130E+00
         21   -1    0    0  503  501  0.00000000000E+00  0.00000000000E+00  0.23870234651E+02  0.23870234651E+02  0.00000000000E+00 0. -1.
         21   -1    0    0  504  502 -0.00000000000E+00 -0.00000000000E+00 -0.36102366599E+02  0.36102366599E+02  0.00000000000E+00 0.  1.
         21    1    1    2  503  502 -0.21002729094E+02 -0.26054511775E+01  0.14664536610E+02  0.25747847273E+02  0.00000000000E+00 0. -1.
         21    1    1    2  504  501  0.21002729094E+02  0.26054511775E+01 -0.26896668558E+02  0.34224753976E+02  0.00000000000E+00 0.  1.
<mgrwt>
<rscale>  2 0.21163719E+02</rscale>
<asrwt>0</asrwt>
<pdfrwt beam="1">  1       21 0.36723438E-02 0.21163719E+02</pdfrwt>
<pdfrwt beam="2">  1       21 0.55542102E-02 0.21163719E+02</pdfrwt>
<totfact> 0.69037049E+07</totfact>
</mgrwt>
</event>
<event>
 4    1  0.4353697E+006  0.2600155E+02  0.7546771E-02  0.1647019E+00
         21   -1    0    0  502  501  0.00000000000E+00  0.00000000000E+00  0.67588466074E+02  0.67588466074E+02  0.00000000000E+00 0. -1.
         21   -1    0    0  504  502 -0.00000000000E+00 -0.00000000000E+00 -0.11557449605E+02  0.11557449605E+02  0.00000000000E+00 0. -1.
         21    1    1    2  503  501 -0.12455698628E+02 -0.22824024261E+02  0.42528940215E+02  0.49847680664E+02  0.00000000000E+00 0. -1.
         21    1    1    2  504  503  0.12455698628E+02  0.22824024261E+02  0.13502076253E+02  0.29298235014E+02  0.00000000000E+00 0. -1.
<mgrwt>
<rscale>  2 0.26001548E+02</rscale>
<asrwt>0</asrwt>
<pdfrwt beam="1">  1       21 0.10398225E-01 0.26001548E+02</pdfrwt>
<pdfrwt beam="2">  1       21 0.17780692E-02 0.26001548E+02</pdfrwt>
<totfact> 0.80828152E+07</totfact>
</mgrwt>
</event>
<event>
 4    1  0.4353697E+006  0.2020747E+02  0.7546771E-02  0.1741233E+00
         21   -1    0    0  502  501  0.00000000000E+00  0.00000000000E+00  0.90199185997E+02  0.90199185997E+02  0.00000000000E+00 0.  1.
         21   -1    0    0  503  502 -0.00000000000E+00 -0.00000000000E+00 -0.12344693486E+02  0.12344693486E+02  0.00000000000E+00 0.  1.
         21    1    1    2  503  504 -0.17206185342E+02  0.10596654628E+02 -0.18742203964E+01  0.20294201276E+02  0.00000000000E+00 0.  1.
         21    1    1    2  504  501  0.17206185342E+02 -0.10596654628E+02  0.79728712908E+02  0.82249678208E+02  0.00000000000E+00 0.  1.
<mgrwt>
<rscale>  2 0.20207471E+02</rscale>
<asrwt>0</asrwt>
<pdfrwt beam="1">  1       21 0.13876797E-01 0.20207471E+02</pdfrwt>
<pdfrwt beam="2">  1       21 0.18991837E-02 0.20207471E+02</pdfrwt>
<totfact> 0.42218875E+07</totfact>
</mgrwt>
</event>
<event>
 4    1  0.4353697E+006  0.2104527E+02  0.7546771E-02  0.1725307E+00
         21   -1    0    0  504  501  0.00000000000E+00  0.00000000000E+00  0.15638735288E+02  0.15638735288E+02  0.00000000000E+00 0. -1.
         21   -1    0    0  501  502 -0.00000000000E+00 -0.00000000000E+00 -0.47828727315E+02  0.47828727315E+02  0.00000000000E+00 0.  1.
         21    1    1    2  503  502 -0.12530848396E+02 -0.16908017907E+02 -0.36361603481E+02  0.42012729484E+02  0.00000000000E+00 0.  1.
         21    1    1    2  504  503  0.12530848396E+02  0.16908017907E+02  0.41716114542E+01  0.21454733118E+02  0.00000000000E+00 0. -1.
<mgrwt>
<rscale>  2 0.21045266E+02</rscale>
<asrwt>0</asrwt>
<pdfrwt beam="1">  1       21 0.24059593E-02 0.21045266E+02</pdfrwt>
<pdfrwt beam="2">  1       21 0.73582657E-02 0.21045266E+02</pdfrwt>
<totfact> 0.84561861E+07</totfact>
</mgrwt>
</event>
<event>
 4    1  0.4353697E+006  0.2944796E+02  0.7546771E-02  0.1604272E+00
         21   -1    0    0  503  501  0.00000000000E+00  0.00000000000E+00  0.79264146593E+01  0.79264146593E+01  0.00000000000E+00 0. -1.
         21   -1    0    0  504  502 -0.00000000000E+00 -0.00000000000E+00 -0.10665117369E+04  0.10665117369E+04  0.00000000000E+00 0.  1.
         21    1    1    2  503  502  0.16639351100E+02  0.24296387823E+02 -0.10382120426E+04  0.10386295913E+04  0.00000000000E+00 0.  1.
         21    1    1    2  504  501 -0.16639351100E+02 -0.24296387823E+02 -0.20373279632E+02  0.35808560278E+02  0.00000000000E+00 0. -1.
<mgrwt>
<rscale>  2 0.29447962E+02</rscale>
<asrwt>0</asrwt>
<pdfrwt beam="1">  1       21 0.12194479E-02 0.29447962E+02</pdfrwt>
<pdfrwt beam="2">  1       21 0.16407880E+00 0.29447962E+02</pdfrwt>
<totfact> 0.66109923E+05</totfact>
</mgrwt>
</event>
<event>
 4    1  0.4353697E+006  0.2369067E+02  0.7546771E-02  0.1680553E+00
         21   -1    0    0  504  501  0.00000000000E+00  0.00000000000E+00  0.18012795180E+02  0.18012795180E+02  0.00000000000E+00 0.  1.
         21   -1    0    0  503  502 -0.00000000000E+00 -0.00000000000E+00 -0.23162176470E+03  0.23162176470E+03  0.00000000000E+00 0.  1.
         21    1    1    2  503  501  0.21800798825E+02  0.92721753641E+01  0.93143442909E+01  0.25455943804E+02  0.00000000000E+00 0.  1.
         21    1    1    2  504  502 -0.21800798825E+02 -0.92721753641E+01 -0.22292331381E+03  0.22417861607E+03  0.00000000000E+00 0.  1.
<mgrwt>
<rscale>  2 0.23690675E+02</rscale>
<asrwt>0</asrwt>
<pdfrwt beam="1">  1       21 0.27711994E-02 0.23690675E+02</pdfrwt>
<pdfrwt beam="2">  1       21 0.35634116E-01 0.23690675E+02</pdfrwt>
<totfact> 0.46275321E+06</totfact>
</mgrwt>
</event>
<event>
 4    1  0.4353697E+006  0.2223706E+02  0.7546771E-02  0.1704184E+00
         21   -1    0    0  504  501  0.00000000000E+00  0.00000000000E+00  0.24751906238E+03  0.24751906238E+03  0.00000000000E+00 0.  1.
         21   -1    0    0  503  502 -0.00000000000E+00 -0.00000000000E+00 -0.87170820911E+01  0.87170820911E+01  0.00000000000E+00 0. -1.
         21    1    1    2  503  501 -0.11310303290E+02  0.19145853933E+02  0.23188406125E+03  0.23294785799E+03  0.00000000000E+00 0.  1.
         21    1    1    2  504  502  0.11310303290E+02 -0.19145853933E+02  0.69179190465E+01  0.23288286482E+02  0.00000000000E+00 0. -1.
<mgrwt>
<rscale>  2 0.22237057E+02</rscale>
<asrwt>0</asrwt>
<pdfrwt beam="1">  1       21 0.38079850E-01 0.22237057E+02</pdfrwt>
<pdfrwt beam="2">  1       21 0.13410897E-02 0.22237057E+02</pdfrwt>
<totfact> 0.12300870E+07</totfact>
</mgrwt>
</event>
<event>
 4    1  0.4353697E+006  0.2366176E+02  0.7546771E-02  0.1681002E+00
         21   -1    0    0  503  501  0.00000000000E+00  0.00000000000E+00  0.12308299855E+01  0.12308299855E+01  0.00000000000E+00 0.  1.
         21   -1    0    0  504  502 -0.00000000000E+00 -0.00000000000E+00 -0.45789783843E+03  0.45789783843E+03  0.00000000000E+00 0. -1.
         21    1    1    2  503  502  0.17485782497E+02 -0.15941346506E+02 -0.20969477137E+03  0.21102553461E+03  0.00000000000E+00 0. -1.
         21    1    1    2  504  501 -0.17485782497E+02  0.15941346506E+02 -0.24697223708E+03  0.24810313381E+03  0.00000000000E+00 0.  1.
<mgrwt>
<rscale>  2 0.23661765E+02</rscale>
<asrwt>0</asrwt>
<pdfrwt beam="1">  1       21 0.18935825E-03 0.23661765E+02</pdfrwt>
<pdfrwt beam="2">  1       21 0.70445899E-01 0.23661765E+02</pdfrwt>
<totfact> 0.67293799E+07</totfact>
</mgrwt>
</event>
<event>
 4    1  0.4353697E+006  0.3760747E+02  0.7546771E-02  0.1526594E+00
         21   -1    0    0  504  501  0.00000000000E+00  0.00000000000E+00  0.35656245949E+02  0.35656245949E+02  0.00000000000E+00 0.  1.
         21   -1    0    0  501  502 -0.00000000000E+00 -0.00000000000E+00 -0.84555724119E+02  0.84555724119E+02  0.00000000000E+00 0. -1.
         21    1    1    2  503  502 -0.14995998441E+02  0.34488281089E+02 -0.68244511973E+02  0.77920696327E+02  0.00000000000E+00 0. -1.
         21    1    1    2  504  503  0.14995998441E+02 -0.34488281089E+02  0.19345033803E+02  0.42291273740E+02  0.00000000000E+00 0.  1.
<mgrwt>
<rscale>  2 0.37607466E+02</rscale>
<asrwt>0</asrwt>
<pdfrwt beam="1">  1       21 0.54855764E-02 0.37607466E+02</pdfrwt>
<pdfrwt beam="2">  1       21 0.13008573E-01 0.37607466E+02</pdfrwt>
<totfact> 0.10051073E+07</totfact>
</mgrwt>
</event>
<event>
 4    1  0.4353697E+006  0.2397843E+02  0.7546771E-02  0.1676124E+00
         21   -1    0    0  503  501  0.00000000000E+00  0.00000000000E+00  0.16151534601E+01  0.16151534601E+01  0.00000000000E+00 0.  1.
         21   -1    0    0  504  502 -0.00000000000E+00 -0.00000000000E+00 -0.44398309108E+03  0.44398309108E+03  0.00000000000E+00 0.  1.
         21    1    1    2  503  502  0.29507126598E+01  0.23796180319E+02 -0.12199227850E+03  0.12432650931E+03  0.00000000000E+00 0.  1.
         21    1    1    2  504  501 -0.29507126598E+01 -0.23796180319E+02 -0.32037565912E+03  0.32127173523E+03  0.00000000000E+00 0.  1.
<mgrwt>
<rscale>  2 0.23978426E+02</rscale>
<asrwt>0</asrwt>
<pdfrwt beam="1">  1       21 0.24848471E-03 0.23978426E+02</pdfrwt>
<pdfrwt beam="2">  1       21 0.68305213E-01 0.23978426E+02</pdfrwt>
<totfact> 0.48515273E+07</totfact>
</mgrwt>
</event>
<event>
 4    1  0.4353697E+006  0.3596244E+02  0.7546771E-02  0.1540216E+00
         21   -1    0    0  504  501  0.00000000000E+00  0.00000000000E+00  0.17450587789E+03  0.17450587789E+03  0.00000000000E+00 0.  1.
         21   -1    0    0  503  502 -0.00000000000E+00 -0.00000000000E+00 -0.98208676028E+01  0.98208676028E+01  0.00000000000E+00 0. -1.
         21    1    1    2  503  501 -0.19039027344E+02  0.30509217014E+02  0.36690216234E+02  0.51375761331E+02  0.00000000000E+00 0. -1.
         21    1    1    2  504  502  0.19039027344E+02 -0.30509217014E+02  0.12799479405E+03  0.13295098416E+03  0.00000000000E+00 0.  1.
<mgrwt>
<rscale>  2 0.35962437E+02</rscale>
<asrwt>0</asrwt>
<pdfrwt beam="1">  1       21 0.26847056E-01 0.35962437E+02</pdfrwt>
<pdfrwt beam="2">  1       21 0.15109028E-02 0.35962437E+02</pdfrwt>
<totfact> 0.21326231E+07</totfact>
</mgrwt>
</event>
<event>
 4    1  0.4353697E+006  0.2285710E+02  0.7546771E-02  0.1693837E+00
         21   -1    0    0  503  501  0.00000000000E+00  0.00000000000E+00  0.54383680670E+03  0.54383680670E+03  0.00000000000E+00 0. -1.
         21   -1    0    0  504  502 -0.00000000000E+00 -0.00000000000E+00 -0.12122669918E+01  0.12122669918E+01  0.00000000000E+00 0. -1.
         21    1    1    2  503  502  0.22856183110E+02 -0.20499687066E+00  0.39546609507E+03  0.39612609038E+03  0.00000000000E+00 0. -1.
         21    1    1    2  504  501 -0.22856183110E+02  0.20499687066E+00  0.14715844464E+03  0.14892298331E+03  0.00000000000E+00 0. -1.
<mgrwt>
<rscale>  2 0.22857102E+02</rscale>
<asrwt>0</asrwt>
<pdfrwt beam="1">  1       21 0.83667006E-01 0.22857102E+02</pdfrwt>
<pdfrwt beam="2">  1       21 0.18650305E-03 0.22857102E+02</pdfrwt>
<totfact> 0.47685565E+07</totfact>
</mgrwt>
</event>
<event>
 4    1  0.4353697E+006  0.3410442E+02  0.7546771E-02  0.1556700E+00
         21   -1    0    0  504  501  0.00000000000E+00  0.00000000000E+00  0.97677521265E+03  0.97677521265E+03  0.00000000000E+00 0.  1.
         21   -1    0    0  503  502 -0.00000000000E+00 -0.00000000000E+00 -0.31779902929E+03  0.31779902929E+03  0.00000000000E+00 0. -1.
         21    1    1    2  503  501 -0.32290995724E+02  0.10972837091E+02  0.97556140874E+03  0.97615735093E+03  0.00000000000E+00 0.  1.
         21    1    1    2  504  502  0.32290995724E+02 -0.10972837091E+02 -0.31658522537E+03  0.31841689101E+03  0.00000000000E+00 0. -1.
<mgrwt>
<rscale>  2 0.34104421E+02</rscale>
<asrwt>0</asrwt>
<pdfrwt beam="1">  1       21 0.15027311E+00 0.34104421E+02</pdfrwt>
<pdfrwt beam="2">  1       21 0.48892159E-01 0.34104421E+02</pdfrwt>
<totfact> 0.16477207E+03</totfact>
</mgrwt>
</event>
<event>
 4    1  0.4353697E+006  0.2015768E+02  0.7546771E-02  0.1742211E+00
         21   -1    0    0  504  501  0.00000000000E+00  0.00000000000E+00  0.21549998681E+03  0.21549998681E+03  0.00000000000E+00 0. -1.
         21   -1    0    0  503  502 -0.00000000000E+00 -0.00000000000E+00 -0.11996803042E+02  0.11996803042E+02  0.00000000000E+00 0.  1.
         21    1    1    2  503  501  0.18042188530E+02  0.89895117817E+01  0.20617921953E+03  0.20716226117E+03  0.00000000000E+00 0. -1.
         21    1    1    2  504  502 -0.18042188530E+02 -0.89895117817E+01 -0.26760357647E+01  0.20334528675E+02  0.00000000000E+00 0.  1.
<mgrwt>
<rscale>  2 0.20157676E+02</rscale>
<asrwt>0</asrwt>
<pdfrwt beam="1">  1       21 0.33153841E-01 0.20157676E+02</pdfrwt>
<pdfrwt beam="2">  1       21 0.18456622E-02 0.20157676E+02</pdfrwt>
<totfact> 0.96033007E+06</totfact>
</mgrwt>
</event>
<event>
 4    1  0.4353697E+006  0.2726628E+02  0.7546771E-02  0.1630434E+00
         21   -1    0    0  503  501  0.00000000000E+00  0.00000000000E+00  0.86815839027E+03  0.86815839027E+03  0.00000000000E+00 0. -1.
         21   -1    0    0  504  502 -0.00000000000E+00 -0.00000000000E+00 -0.19802544172E+01  0.19802544172E+01  0.00000000000E+00 0.  1.
         21    1    1    2  503  502  0.12389978933E+02  0.24288652321E+02  0.10532447392E+03  0.10879657631E+03  0.00000000000E+00 0.  1.
         21    1    1    2  504  501 -0.12389978933E+02 -0.24288652321E+02  0.76085366193E+03  0.76134206838E+03  0.00000000000E+00 0. -1.
<mgrwt>
<rscale>  2 0.27266283E+02</rscale>
<asrwt>0</asrwt>
<pdfrwt beam="1">  1       21 0.13356253E+00 0.27266283E+02</pdfrwt>
<pdfrwt beam="2">  1       21 0.30465522E-03 0.27266283E+02</pdfrwt>
<totfact> 0.85339675E+06</totfact>
</mgrwt>
</event>
<event>
 4    1  0.4353697E+006  0.2677299E+02  0.7546771E-02  0.1636768E+00
         21   -1    0    0  504  501  0.00000000000E+00  0.00000000000E+00  0.79772141185E+01  0.79772141185E+01  0.00000000000E+00 0. -1.
         21   -1    0    0  501  502 -0.00000000000E+00 -0.00000000000E+00 -0.38373189602E+03  0.38373189602E+03  0.00000000000E+00 0. -1.
         21    1    1    2  503  502 -0.25536942371E+02 -0.80409920475E+01 -0.35927402339E+03  0.36027019979E+03  0.00000000000E+00 0. -1.
         21    1    1    2  504  503  0.25536942371E+02  0.80409920475E+01 -0.16480658521E+02  0.31438910351E+02  0.00000000000E+00 0. -1.
<mgrwt>
<rscale>  2 0.26772990E+02</rscale>
<asrwt>0</asrwt>
<pdfrwt beam="1">  1       21 0.12272641E-02 0.26772990E+02</pdfrwt>
<pdfrwt beam="2">  1       21 0.59035660E-01 0.26772990E+02</pdfrwt>
<totfact> 0.62148612E+06</totfact>
</mgrwt>
</event>
<event>
 4    1  0.4353697E+006  0.2372410E+02  0.7546771E-02  0.1680035E+00
         21   -1    0    0  503  501  0.00000000000E+00  0.00000000000E+00  0.20288554124E+03  0.20288554124E+03  0.00000000000E+00 0.  1.
         21   -1    0    0  504  502 -0.00000000000E+00 -0.00000000000E+00 -0.30862018011E+01  0.30862018011E+01  0.00000000000E+00 0.  1.
         21    1    1    2  503  502 -0.12454053626E+02  0.20192314399E+02  0.67151623707E+02  0.71219193895E+02  0.00000000000E+00 0.  1.
         21    1    1    2  504  501  0.12454053626E+02 -0.20192314399E+02  0.13264771573E+03  0.13475254914E+03  0.00000000000E+00 0.  1.
<mgrwt>
<rscale>  2 0.23724102E+02</rscale>
<asrwt>0</asrwt>
<pdfrwt beam="1">  1       21 0.31213150E-01 0.23724102E+02</pdfrwt>
<pdfrwt beam="2">  1       21 0.47480043E-03 0.23724102E+02</pdfrwt>
<totfact> 0.84971398E+07</totfact>
</mgrwt>
</event>
<event>
 4    1  0.4353697E+006  0.2850144E+02  0.7546771E-02  0.1615269E+00
         21   -1    0    0  503  501  0.00000000000E+00  0.00000000000E+00  0.17119166712E+01  0.17119166712E+01  0.00000000000E+00 0.  1.
         21   -1    0    0  504  502 -0.00000000000E+00 -0.00000000000E+00 -0.63989696986E+03  0.63989696986E+03  0.00000000000E+00 0.  1.
         21    1    1    2  503  502  0.65426820820E+01  0.27740324581E+02 -0.48218269211E+03  0.48302430670E+03  0.00000000000E+00 0.  1.
         21    1    1    2  504  501 -0.65426820820E+01 -0.27740324581E+02 -0.15600236108E+03  0.15858457983E+03  0.00000000000E+00 0.  1.
<mgrwt>
<rscale>  2 0.28501444E+02</rscale>
<asrwt>0</asrwt>
<pdfrwt beam="1">  1       21 0.26337144E-03 0.28501444E+02</pdfrwt>
<pdfrwt beam="2">  1       21 0.98445822E-01 0.28501444E+02</pdfrwt>
<totfact> 0.21232942E+07</totfact>
</mgrwt>
</event>
<event>
 4    1  0.4353697E+006  0.2086308E+02  0.7546771E-02  0.1728690E+00
         21   -1    0    0  504  501  0.00000000000E+00  0.00000000000E+00  0.80358230910E+02  0.80358230910E+02  0.00000000000E+00 0.  1.
         21   -1    0    0  503  502 -0.00000000000E+00 -0.00000000000E+00 -0.70521872791E+01  0.70521872791E+01  0.00000000000E+00 0.  1.
         21    1    1    2  503  501  0.32674031979E+01  0.20605637741E+02  0.15605139079E+02  0.26053571656E+02  0.00000000000E+00 0.  1.
         21    1    1    2  504  502 -0.32674031979E+01 -0.20605637741E+02  0.57700904552E+02  0.61356846533E+02  0.00000000000E+00 0.  1.
<mgrwt>
<rscale>  2 0.20863083E+02</rscale>
<asrwt>0</asrwt>
<pdfrwt beam="1">  1       21 0.12362804E-01 0.20863083E+02</pdfrwt>
<pdfrwt beam="2">  1       21 0.10849519E-02 0.20863083E+02</pdfrwt>
<totfact> 0.12052638E+08</totfact>
</mgrwt>
</event>
<event>
 4    1  0.4353697E+006  0.2301602E+02  0.7546771E-02  0.1691251E+00
         21   -1    0    0  504  501  0.00000000000E+00  0.00000000000E+00  0.18382553505E+01  0.18382553505E+01  0.00000000000E+00 0. -1.
         21   -1    0    0  501  502 -0.00000000000E+00 -0.00000000000E+00 -0.42541954363E+03  0.42541954363E+03  0.00000000000E+00 0. -1.
         21    1    1    2  503  502 -0.10775439692E+02  0.20337827069E+02 -0.33312966477E+03  0.33392380996E+03  0.00000000000E+00 0. -1.
         21    1    1    2  504  503  0.10775439692E+02 -0.20337827069E+02 -0.90451623509E+02  0.93333989017E+02  0.00000000000E+00 0. -1.
<mgrwt>
<rscale>  2 0.23016023E+02</rscale>
<asrwt>0</asrwt>
<pdfrwt beam="1">  1       21 0.28280872E-03 0.23016023E+02</pdfrwt>
<pdfrwt beam="2">  1       21 0.65449112E-01 0.23016023E+02</pdfrwt>
<totfact> 0.43446466E+07</totfact>
</mgrwt>
</event>
<event>
 4    1  0.4353697E+006  0.1017800E+03  0.7546771E-02  0.1276597E+00
         21   -1    0    0  503  501  0.00000000000E+00  0.00000000000E+00  0.61163614541E+02  0.61163614541E+02  0.00000000000E+00 0. -1.
         21   -1    0    0  504  502 -0.00000000000E+00 -0.00000000000E+00 -0.21289649930E+03  0.21289649930E+03  0.00000000000E+00 0.  1.
         21    1    1    2  503  502  0.76346898547E+02 -0.67307659640E+02 -0.13782731658E+03  0.17133458250E+03  0.00000000000E+00 0.  1.
         21    1    1    2  504  501 -0.76346898547E+02  0.67307659640E+02 -0.13905568183E+02  0.10272553135E+03  0.00000000000E+00 0. -1.
<mgrwt>
<rscale>  2 0.10178001E+03</rscale>
<asrwt>0</asrwt>
<pdfrwt beam="1">  1       21 0.94097869E-02 0.10178001E+03</pdfrwt>
<pdfrwt beam="2">  1       21 0.32753308E-01 0.10178001E+03</pdfrwt>
<totfact> 0.81208192E+05</totfact>
</mgrwt>
</event>
<event>
 4    1  0.4353697E+006  0.2061926E+02  0.7546771E-02  0.1733287E+00
         21   -1    0    0  502  501  0.00000000000E+00  0.00000000000E+00  0.36755136277E+03  0.36755136277E+03  0.00000000000E+00 0.  1.
         21   -1    0    0  504  502 -0.00000000000E+00 -0.00000000000E+00 -0.18317936654E+02  0.18317936654E+02  0.00000000000E+00 0.  1.
         21    1    1    2  503  501  0.74868149652E+01 -0.19212011110E+02  0.36136043051E+03  0.36194822075E+03  0.00000000000E+00 0.  1.
         21    1    1    2  504  503 -0.74868149652E+01  0.19212011110E+02 -0.12127004392E+02  0.23921078670E+02  0.00000000000E+00 0.  1.
<mgrwt>
<rscale>  2 0.20619257E+02</rscale>
<asrwt>0</asrwt>
<pdfrwt beam="1">  1       21 0.56546358E-01 0.20619257E+02</pdfrwt>
<pdfrwt beam="2">  1       21 0.28181444E-02 0.20619257E+02</pdfrwt>
<totfact> 0.18292665E+06</totfact>
</mgrwt>
</event>
<event>
 4    1  0.4353697E+006  0.3372503E+02  0.7546771E-02  0.1560223E+00
         21   -1    0    0  503  501  0.00000000000E+00  0.00000000000E+00  0.56328061567E+02  0.56328061567E+02  0.00000000000E+00 0. -1.
         21   -1    0    0  504  502 -0.00000000000E+00 -0.00000000000E+00 -0.20233446541E+02  0.20233446541E+02  0.00000000000E+00 0. -1.
         21    1    1    2  503  502  0.32123176858E+02  0.10270316406E+02  0.19779252854E+02  0.39097272718E+02  0.00000000000E+00 0. -1.
         21    1    1    2  504  501 -0.32123176858E+02 -0.10270316406E+02  0.16315362171E+02  0.37464235390E+02  0.00000000000E+00 0. -1.
<mgrwt>
<rscale>  2 0.33725034E+02</rscale>
<asrwt>0</asrwt>
<pdfrwt beam="1">  1       21 0.86658556E-02 0.33725034E+02</pdfrwt>
<pdfrwt beam="2">  1       21 0.31128379E-02 0.33725034E+02</pdfrwt>
<totfact> 0.48607448E+07</totfact>
</mgrwt>
</event>
<event>
 4    1  0.4353697E+006  0.2254781E+02  0.7546771E-02  0.1698947E+00
         21   -1    0    0  503  501  0.00000000000E+00  0.00000000000E+00  0.15114777009E+03  0.15114777009E+03  0.00000000000E+00 0. -1.
         21   -1    0    0  504  502 -0.00000000000E+00 -0.00000000000E+00 -0.81901181528E+01  0.81901181528E+01  0.00000000000E+00 0.  1.
         21    1    1    2  503  502  0.22534342322E+02 -0.77908846636E+00  0.10319867661E+02  0.24797242413E+02  0.00000000000E+00 0.  1.
         21    1    1    2  504  501 -0.22534342322E+02  0.77908846636E+00  0.13263778428E+03  0.13454064583E+03  0.00000000000E+00 0. -1.
<mgrwt>
<rscale>  2 0.22547806E+02</rscale>
<asrwt>0</asrwt>
<pdfrwt beam="1">  1       21 0.23253501E-01 0.22547806E+02</pdfrwt>
<pdfrwt beam="2">  1       21 0.12600183E-02 0.22547806E+02</pdfrwt>
<totfact> 0.33206718E+07</totfact>
</mgrwt>
</event>
<event>
 4    1  0.4353697E+006  0.2233532E+02  0.7546771E-02  0.1702517E+00
         21   -1    0    0  504  501  0.00000000000E+00  0.00000000000E+00  0.21873101461E+02  0.21873101461E+02  0.00000000000E+00 0. -1.
         21   -1    0    0  503  502 -0.00000000000E+00 -0.00000000000E+00 -0.24246525092E+03  0.24246525092E+03  0.00000000000E+00 0. -1.
         21    1    1    2  503  501 -0.21899038279E+02  0.43930155658E+01 -0.23609556764E+03  0.23714970699E+03  0.00000000000E+00 0. -1.
         21    1    1    2  504  502  0.21899038279E+02 -0.43930155658E+01  0.15503418180E+02  0.27188645398E+02  0.00000000000E+00 0. -1.
<mgrwt>
<rscale>  2 0.22335319E+02</rscale>
<asrwt>0</asrwt>
<pdfrwt beam="1">  1       21 0.33650925E-02 0.22335319E+02</pdfrwt>
<pdfrwt beam="2">  1       21 0.37302347E-01 0.22335319E+02</pdfrwt>
<totfact> 0.31125920E+06</totfact>
</mgrwt>
</event>
<event>
 4    1  0.4353697E+006  0.2463439E+02  0.7546771E-02  0.1666309E+00
         21   -1    0    0  504  501  0.00000000000E+00  0.00000000000E+00  0.16436223271E+02  0.16436223271E+02  0.00000000000E+00 0. -1.
         21   -1    0    0  503  502 -0.00000000000E+00 -0.00000000000E+00 -0.58325665793E+02  0.58325665793E+02  0.00000000000E+00 0.  1.
         21    1    1    2  503  501  0.14489792417E+02 -0.19922330098E+02 -0.43589471372E+02  0.50068905873E+02  0.00000000000E+00 0.  1.
         21    1    1    2  504  502 -0.14489792417E+02  0.19922330098E+02  0.17000288502E+01  0.24692983192E+02  0.00000000000E+00 0. -1.
<mgrwt>
<rscale>  2 0.24634393E+02</rscale>
<asrwt>0</asrwt>
<pdfrwt beam="1">  1       21 0.25286497E-02 0.24634393E+02</pdfrwt>
<pdfrwt beam="2">  1       21 0.89731793E-02 0.24634393E+02</pdfrwt>
<totfact> 0.59130170E+07</totfact>
</mgrwt>
</event>
<event>
 4    1  0.4353697E+006  0.2200246E+02  0.7546771E-02  0.1708209E+00
         21   -1    0    0  502  501  0.00000000000E+00  0.00000000000E+00  0.42082032345E+03  0.42082032345E+03  0.00000000000E+00 0. -1.
         21   -1    0    0  504  502 -0.00000000000E+00 -0.00000000000E+00 -0.31721827003E+01  0.31721827003E+01  0.00000000000E+00 0. -1.
         21    1    1    2  503  501 -0.68560508444E+01  0.20907008404E+02  0.37806958223E+03  0.37870927826E+03  0.00000000000E+00 0. -1.
         21    1    1    2  504  503  0.68560508444E+01 -0.20907008404E+02  0.39578558522E+02  0.45283227892E+02  0.00000000000E+00 0. -1.
<mgrwt>
<rscale>  2 0.22002464E+02</rscale>
<asrwt>0</asrwt>
<pdfrwt beam="1">  1       21 0.64741544E-01 0.22002464E+02</pdfrwt>
<pdfrwt beam="2">  1       21 0.48802844E-03 0.22002464E+02</pdfrwt>
<totfact> 0.19795700E+07</totfact>
</mgrwt>
</event>
<event>
 4    1  0.4353697E+006  0.2432103E+02  0.7546771E-02  0.1670950E+00
         21   -1    0    0  503  501  0.00000000000E+00  0.00000000000E+00  0.49309379177E+02  0.49309379177E+02  0.00000000000E+00 0. -1.
         21   -1    0    0  504  502 -0.00000000000E+00 -0.00000000000E+00 -0.35426878334E+02  0.35426878334E+02  0.00000000000E+00 0.  1.
         21    1    1    2  503  502  0.13274981186E+02 -0.20378602014E+02 -0.27514970622E+02  0.36723101092E+02  0.00000000000E+00 0.  1.
         21    1    1    2  504  501 -0.13274981186E+02  0.20378602014E+02  0.41397471465E+02  0.48013156418E+02  0.00000000000E+00 0. -1.
<mgrwt>
<rscale>  2 0.24321031E+02</rscale>
<asrwt>0</asrwt>
<pdfrwt beam="1">  1       21 0.75860584E-02 0.24321031E+02</pdfrwt>
<pdfrwt beam="2">  1       21 0.54502889E-02 0.24321031E+02</pdfrwt>
<totfact> 0.23153912E+07</totfact>
</mgrwt>
</event>
<event>
 4    1  0.4353697E+006  0.2123876E+02  0.7546771E-02  0.1721760E+00
         21   -1    0    0  503  501  0.00000000000E+00  0.00000000000E+00  0.13540163662E+01  0.13540163662E+01  0.00000000000E+00 0. -1.
         21   -1    0    0  504  502 -0.00000000000E+00 -0.00000000000E+00 -0.38531451842E+03  0.38531451842E+03  0.00000000000E+00 0. -1.
         21    1    1    2  503  502  0.37411830445E+01  0.20906661380E+02 -0.12084153809E+03  0.12269377437E+03  0.00000000000E+00 0. -1.
         21    1    1    2  504  501 -0.37411830445E+01 -0.20906661380E+02 -0.26311896396E+03  0.26397476041E+03  0.00000000000E+00 0. -1.
<mgrwt>
<rscale>  2 0.21238760E+02</rscale>
<asrwt>0</asrwt>
<pdfrwt beam="1">  1       21 0.20831019E-03 0.21238760E+02</pdfrwt>
<pdfrwt beam="2">  1       21 0.59279163E-01 0.21238760E+02</pdfrwt>
<totfact> 0.80943854E+07</totfact>
</mgrwt>
</event>
<event>
 4    1  0.4353697E+006  0.2334335E+02  0.7546771E-02  0.1686004E+00
         21   -1    0    0  502  501  0.00000000000E+00  0.00000000000E+00  0.80789779353E+00  0.80789779353E+00  0.00000000000E+00 0.  1.
         21   -1    0    0  503  502 -0.00000000000E+00 -0.00000000000E+00 -0.82178248079E+03  0.82178248079E+03  0.00000000000E+00 0. -1.
         21    1    1    2  503  504  0.36544609593E+01 -0.23055513319E+02 -0.58461930568E+03  0.58508515992E+03  0.00000000000E+00 0. -1.
         21    1    1    2  504  501 -0.36544609593E+01  0.23055513319E+02 -0.23635527732E+03  0.23750521867E+03  0.00000000000E+00 0.  1.
<mgrwt>
<rscale>  2 0.23343346E+02</rscale>
<asrwt>0</asrwt>
<pdfrwt beam="1">  1       21 0.12429253E-03 0.23343346E+02</pdfrwt>
<pdfrwt beam="2">  1       21 0.12642750E+00 0.23343346E+02</pdfrwt>
<totfact> 0.34589694E+07</totfact>
</mgrwt>
</event>
<event>
 4    1  0.4353697E+006  0.2080257E+02  0.7546771E-02  0.1729823E+00
         21   -1    0    0  503  501  0.00000000000E+00  0.00000000000E+00  0.15605073954E+03  0.15605073954E+03  0.00000000000E+00 0.  1.
         21   -1    0    0  504  502 -0.00000000000E+00 -0.00000000000E+00 -0.21390506196E+02  0.21390506196E+02  0.00000000000E+00 0.  1.
         21    1    1    2  503  502  0.20774694676E+02 -0.10766253085E+01  0.15010020761E+03  0.15153487845E+03  0.00000000000E+00 0.  1.
         21    1    1    2  504  501 -0.20774694676E+02  0.10766253085E+01 -0.15439974265E+02  0.25906367292E+02  0.00000000000E+00 0.  1.
<mgrwt>
<rscale>  2 0.20802573E+02</rscale>
<asrwt>0</asrwt>
<pdfrwt beam="1">  1       21 0.24007805E-01 0.20802573E+02</pdfrwt>
<pdfrwt beam="2">  1       21 0.32908472E-02 0.20802573E+02</pdfrwt>
<totfact> 0.70866213E+06</totfact>
</mgrwt>
</event>
<event>
 4    1  0.4353697E+006  0.2735672E+02  0.7546771E-02  0.1629290E+00
         21   -1    0    0  502  501  0.00000000000E+00  0.00000000000E+00  0.12683830129E+02  0.12683830129E+02  0.00000000000E+00 0. -1.
         21   -1    0    0  503  502 -0.00000000000E+00 -0.00000000000E+00 -0.62845312815E+02  0.62845312815E+02  0.00000000000E+00 0. -1.
         21    1    1    2  503  504  0.92758839394E+00  0.27340987117E+02 -0.34417967607E+02  0.43965742243E+02  0.00000000000E+00 0. -1.
         21    1    1    2  504  501 -0.92758839394E+00 -0.27340987117E+02 -0.15743515079E+02  0.31563400701E+02  0.00000000000E+00 0. -1.
<mgrwt>
<rscale>  2 0.27356718E+02</rscale>
<asrwt>0</asrwt>
<pdfrwt beam="1">  1       21 0.19513585E-02 0.27356718E+02</pdfrwt>
<pdfrwt beam="2">  1       21 0.96685098E-02 0.27356718E+02</pdfrwt>
<totfact> 0.80089071E+07</totfact>
</mgrwt>
</event>
<event>
 4    1  0.4353697E+006  0.2206039E+02  0.7546771E-02  0.1707210E+00
         21   -1    0    0  503  501  0.00000000000E+00  0.00000000000E+00  0.11983459315E+02  0.11983459315E+02  0.00000000000E+00 0.  1.
         21   -1    0    0  504  502 -0.00000000000E+00 -0.00000000000E+00 -0.40660760428E+02  0.40660760428E+02  0.00000000000E+00 0.  1.
         21    1    1    2  503  502 -0.21917892160E+02 -0.25033804418E+01 -0.13418327487E+02  0.25820775026E+02  0.00000000000E+00 0.  1.
         21    1    1    2  504  501  0.21917892160E+02  0.25033804418E+01 -0.15258973626E+02  0.26823444717E+02  0.00000000000E+00 0.  1.
<mgrwt>
<rscale>  2 0.22060392E+02</rscale>
<asrwt>0</asrwt>
<pdfrwt beam="1">  1       21 0.18436091E-02 0.22060392E+02</pdfrwt>
<pdfrwt beam="2">  1       21 0.62555016E-02 0.22060392E+02</pdfrwt>
<totfact> 0.16759454E+08</totfact>
</mgrwt>
</event>
<event>
 4    1  0.4353697E+006  0.2250978E+02  0.7546771E-02  0.1699582E+00
         21   -1    0    0  503  501  0.00000000000E+00  0.00000000000E+00  0.52679749229E+01  0.52679749229E+01  0.00000000000E+00 0.  1.
         21   -1    0    0  504  502 -0.00000000000E+00 -0.00000000000E+00 -0.10571105212E+03  0.10571105212E+03  0.00000000000E+00 0. -1.
         21    1    1    2  503  502 -0.22286387202E+02  0.31633773507E+01 -0.33562453638E+02  0.40411982196E+02  0.00000000000E+00 0.  1.
         21    1    1    2  504  501  0.22286387202E+02 -0.31633773507E+01 -0.66880623554E+02  0.70567044842E+02  0.00000000000E+00 0. -1.
<mgrwt>
<rscale>  2 0.22509776E+02</rscale>
<asrwt>0</asrwt>
<pdfrwt beam="1">  1       21 0.81045776E-03 0.22509776E+02</pdfrwt>
<pdfrwt beam="2">  1       21 0.16263237E-01 0.22509776E+02</pdfrwt>
<totfact> 0.11990428E+08</totfact>
</mgrwt>
</event>
<event>
 4    1  0.4353697E+006  0.4515585E+02  0.7546771E-02  0.1473371E+00
         21   -1    0    0  503  501  0.00000000000E+00  0.00000000000E+00  0.30974530101E+03  0.30974530101E+03  0.00000000000E+00 0.  1.
         21   -1    0    0  501  502 -0.00000000000E+00 -0.00000000000E+00 -0.46243321330E+02  0.46243321330E+02  0.00000000000E+00 0.  1.
         21    1    1    2  503  504 -0.44979723623E+02 -0.39843488392E+01  0.29658991557E+03  0.30000771422E+03  0.00000000000E+00 0.  1.
         21    1    1    2  504  502  0.44979723623E+02  0.39843488392E+01 -0.33087935888E+02  0.55980908123E+02  0.00000000000E+00 0.  1.
<mgrwt>
<rscale>  2 0.45155848E+02</rscale>
<asrwt>0</asrwt>
<pdfrwt beam="1">  1       21 0.47653122E-01 0.45155848E+02</pdfrwt>
<pdfrwt beam="2">  1       21 0.71143573E-02 0.45155848E+02</pdfrwt>
<totfact> 0.61680838E+05</totfact>
</mgrwt>
</event>
<event>
 4    1  0.4353697E+006  0.2810637E+02  0.7546771E-02  0.1620016E+00
         21   -1    0    0  502  501  0.00000000000E+00  0.00000000000E+00  0.10382717681E+03  0.10382717681E+03  0.00000000000E+00 0.  1.
         21   -1    0    0  503  502 -0.00000000000E+00 -0.00000000000E+00 -0.44782194740E+02  0.44782194740E+02  0.00000000000E+00 0. -1.
         21    1    1    2  503  504 -0.12651266822E+02  0.25098080577E+02 -0.38176380287E+02  0.47406795005E+02  0.00000000000E+00 0. -1.
         21    1    1    2  504  501  0.12651266822E+02 -0.25098080577E+02  0.97221362358E+02  0.10120257655E+03  0.00000000000E+00 0.  1.
<mgrwt>
<rscale>  2 0.28106373E+02</rscale>
<asrwt>0</asrwt>
<pdfrwt beam="1">  1       21 0.15973412E-01 0.28106373E+02</pdfrwt>
<pdfrwt beam="2">  1       21 0.68895684E-02 0.28106373E+02</pdfrwt>
<totfact> 0.46736238E+06</totfact>
</mgrwt>
</event>
<event>
 4    1  0.4353697E+006  0.2054718E+02  0.7546771E-02  0.1734661E+00
         21   -1    0    0  504  501  0.00000000000E+00  0.00000000000E+00  0.10233548756E+01  0.10233548756E+01  0.00000000000E+00 0. -1.
         21   -1    0    0  503  502 -0.00000000000E+00 -0.00000000000E+00 -0.51777804555E+03  0.51777804555E+03  0.00000000000E+00 0. -1.
         21    1    1    2  503  501  0.11405428097E+02  0.17091017314E+02 -0.37531700775E+03  0.37587902704E+03  0.00000000000E+00 0. -1.
         21    1    1    2  504  502 -0.11405428097E+02 -0.17091017314E+02 -0.14143768293E+03  0.14292237339E+03  0.00000000000E+00 0. -1.
<mgrwt>
<rscale>  2 0.20547181E+02</rscale>
<asrwt>0</asrwt>
<pdfrwt beam="1">  1       21 0.15743881E-03 0.20547181E+02</pdfrwt>
<pdfrwt beam="2">  1       21 0.79658363E-01 0.20547181E+02</pdfrwt>
<totfact> 0.65757599E+07</totfact>
</mgrwt>
</event>
<event>
 4    1  0.4353697E+006  0.2701075E+02  0.7546771E-02  0.1633694E+00
         21   -1    0    0  502  501  0.00000000000E+00  0.00000000000E+00  0.57251732526E+02  0.57251732526E+02  0.00000000000E+00 0.  1.
         21   -1    0    0  504  502 -0.00000000000E+00 -0.00000000000E+00 -0.13707660985E+02  0.13707660985E+02  0.00000000000E+00 0.  1.
         21    1    1    2  503  501  0.79728582096E+01  0.25807245868E+02  0.31182276101E+02  0.41254269478E+02  0.00000000000E+00 0.  1.
         21    1    1    2  504  503 -0.79728582096E+01 -0.25807245868E+02  0.12361795441E+02  0.29705124033E+02  0.00000000000E+00 0.  1.
<mgrwt>
<rscale>  2 0.27010746E+02</rscale>
<asrwt>0</asrwt>
<pdfrwt beam="1">  1       21 0.88079587E-02 0.27010746E+02</pdfrwt>
<pdfrwt beam="2">  1       21 0.21088710E-02 0.27010746E+02</pdfrwt>
<totfact> 0.82640452E+07</totfact>
</mgrwt>
</event>
<event>
 4    1  0.4353697E+006  0.3052231E+02  0.7546771E-02  0.1592386E+00
         21   -1    0    0  504  501  0.00000000000E+00  0.00000000000E+00  0.36013960043E+01  0.36013960043E+01  0.00000000000E+00 0. -1.
         21   -1    0    0  501  502 -0.00000000000E+00 -0.00000000000E+00 -0.32553432460E+03  0.32553432460E+03  0.00000000000E+00 0. -1.
         21    1    1    2  503  502 -0.25915479722E+02 -0.16124499128E+02 -0.23554419740E+03  0.23751353749E+03  0.00000000000E+00 0. -1.
         21    1    1    2  504  503  0.25915479722E+02  0.16124499128E+02 -0.86388731194E+02  0.91622183115E+02  0.00000000000E+00 0. -1.
<mgrwt>
<rscale>  2 0.30522313E+02</rscale>
<asrwt>0</asrwt>
<pdfrwt beam="1">  1       21 0.55406088E-03 0.30522313E+02</pdfrwt>
<pdfrwt beam="2">  1       21 0.50082208E-01 0.30522313E+02</pdfrwt>
<totfact> 0.29144022E+07</totfact>
</mgrwt>
</event>
<event>
 4    1  0.4353697E+006  0.3259928E+02  0.7546771E-02  0.1571015E+00
         21   -1    0    0  502  501  0.00000000000E+00  0.00000000000E+00  0.18823153070E+03  0.18823153070E+03  0.00000000000E+00 0. -1.
         21   -1    0    0  503  502 -0.00000000000E+00 -0.00000000000E+00 -0.94184630295E+01  0.94184630295E+01  0.00000000000E+00 0. -1.
         21    1    1    2  503  504 -0.32483034898E+02 -0.27505700117E+01  0.26860159558E+02  0.42239571057E+02  0.00000000000E+00 0. -1.
         21    1    1    2  504  501  0.32483034898E+02  0.27505700117E+01  0.15195290811E+03  0.15541042267E+03  0.00000000000E+00 0. -1.
<mgrwt>
<rscale>  2 0.32599282E+02</rscale>
<asrwt>0</asrwt>
<pdfrwt beam="1">  1       21 0.28958694E-01 0.32599282E+02</pdfrwt>
<pdfrwt beam="2">  1       21 0.14489945E-02 0.32599282E+02</pdfrwt>
<totfact> 0.19468572E+07</totfact>
</mgrwt>
</event>
<event>
 4    1  0.4353697E+006  0.2677540E+02  0.7546771E-02  0.1636737E+00
         21   -1    0    0  504  501  0.00000000000E+00  0.00000000000E+00  0.41069846418E+02  0.41069846418E+02  0.00000000000E+00 0.  1.
         21   -1    0    0  503  502 -0.00000000000E+00 -0.00000000000E+00 -0.17900710936E+02  0.17900710936E+02  0.00000000000E+00 0.  1.
         21    1    1    2  503  501  0.16905098785E+02  0.20763896891E+02  0.69380111233E+01  0.27659677824E+02  0.00000000000E+00 0.  1.
         21    1    1    2  504  502 -0.16905098785E+02 -0.20763896891E+02  0.16231124359E+02  0.31310879530E+02  0.00000000000E+00 0.  1.
<mgrwt>
<rscale>  2 0.26775395E+02</rscale>
<asrwt>0</asrwt>
<pdfrwt beam="1">  1       21 0.63184379E-02 0.26775395E+02</pdfrwt>
<pdfrwt beam="2">  1       21 0.27539555E-02 0.26775395E+02</pdfrwt>
<totfact> 0.93781744E+07</totfact>
</mgrwt>
</event>
<event>
 4    1  0.4353697E+006  0.2555609E+02  0.7546771E-02  0.1653141E+00
         21   -1    0    0  503  501  0.00000000000E+00  0.00000000000E+00  0.78734403092E+03  0.78734403092E+03  0.00000000000E+00 0. -1.
         21   -1    0    0  501  502 -0.00000000000E+00 -0.00000000000E+00 -0.36488540279E+01  0.36488540279E+01  0.00000000000E+00 0. -1.
         21    1    1    2  503  504 -0.24425403919E+02 -0.75175277423E+01  0.73949419799E+03  0.73993566101E+03  0.00000000000E+00 0. -1.
         21    1    1    2  504  502  0.24425403919E+02  0.75175277423E+01  0.44200978906E+02  0.51057223938E+02  0.00000000000E+00 0. -1.
<mgrwt>
<rscale>  2 0.25556087E+02</rscale>
<asrwt>0</asrwt>
<pdfrwt beam="1">  1       21 0.12112972E+00 0.25556087E+02</pdfrwt>
<pdfrwt beam="2">  1       21 0.56136278E-03 0.25556087E+02</pdfrwt>
<totfact> 0.43065621E+06</totfact>
</mgrwt>
</event>
<event>
 4    1  0.4353697E+006  0.3624585E+02  0.7546771E-02  0.1537807E+00
         21   -1    0    0  504  501  0.00000000000E+00  0.00000000000E+00  0.50021612577E+01  0.50021612577E+01  0.00000000000E+00 0.  1.
         21   -1    0    0  503  502 -0.00000000000E+00 -0.00000000000E+00 -0.33315032143E+03  0.33315032143E+03  0.00000000000E+00 0.  1.
         21    1    1    2  503  501  0.17746256949E+02  0.31604308200E+02 -0.86289712882E+02  0.93593143349E+02  0.00000000000E+00 0.  1.
         21    1    1    2  504  502 -0.17746256949E+02 -0.31604308200E+02 -0.24185844729E+03  0.24455933934E+03  0.00000000000E+00 0.  1.
<mgrwt>
<rscale>  2 0.36245854E+02</rscale>
<asrwt>0</asrwt>
<pdfrwt beam="1">  1       21 0.76956327E-03 0.36245854E+02</pdfrwt>
<pdfrwt beam="2">  1       21 0.51253896E-01 0.36245854E+02</pdfrwt>
<totfact> 0.17486404E+07</totfact>
</mgrwt>
</event>
<event>
 4    1  0.4353697E+006  0.3093581E+02  0.7546771E-02  0.1587969E+00
         21   -1    0    0  503  501  0.00000000000E+00  0.00000000000E+00  0.42862979566E+03  0.42862979566E+03  0.00000000000E+00 0. -1.
         21   -1    0    0  504  502 -0.00000000000E+00 -0.00000000000E+00 -0.67603324046E+01  0.67603324046E+01  0.00000000000E+00 0. -1.
         21    1    1    2  503  502 -0.72323718052E+01  0.30078513421E+02  0.38908957229E+03  0.39031745981E+03  0.00000000000E+00 0. -1.
         21    1    1    2  504  501  0.72323718052E+01 -0.30078513421E+02  0.32779890970E+02  0.45072668255E+02  0.00000000000E+00 0. -1.
<mgrwt>
<rscale>  2 0.30935807E+02</rscale>
<asrwt>0</asrwt>
<pdfrwt beam="1">  1       21 0.65943024E-01 0.30935807E+02</pdfrwt>
<pdfrwt beam="2">  1       21 0.10400515E-02 0.30935807E+02</pdfrwt>
<totfact> 0.65100308E+06</totfact>
</mgrwt>
</event>
<event>
 4    1  0.4353697E+006  0.2190081E+02  0.7546771E-02  0.1709973E+00
         21   -1    0    0  504  501  0.00000000000E+00  0.00000000000E+00  0.12998633573E+04  0.12998633573E+04  0.00000000000E+00 0. -1.
         21   -1    0    0  503  502 -0.00000000000E+00 -0.00000000000E+00 -0.38168118938E+01  0.38168118938E+01  0.00000000000E+00 0. -1.
         21    1    1    2  503  501 -0.16379496335E+01  0.21839470942E+02  0.12675537427E+04  0.12677429298E+04  0.00000000000E+00 0. -1.
         21    1    1    2  504  502  0.16379496335E+01 -0.21839470942E+02  0.28492802658E+02  0.35937239368E+02  0.00000000000E+00 0. -1.
<mgrwt>
<rscale>  2 0.21900808E+02</rscale>
<asrwt>0</asrwt>
<pdfrwt beam="1">  1       21 0.19997863E+00 0.21900808E+02</pdfrwt>
<pdfrwt beam="2">  1       21 0.58720286E-03 0.21900808E+02</pdfrwt>
<totfact> 0.11895101E+06</totfact>
</mgrwt>
</event>
<event>
 4    1  0.4353697E+006  0.2648624E+02  0.7546771E-02  0.1640529E+00
         21   -1    0    0  504  501  0.00000000000E+00  0.00000000000E+00  0.18378267734E+01  0.18378267734E+01  0.00000000000E+00 0. -1.
         21   -1    0    0  501  502 -0.00000000000E+00 -0.00000000000E+00 -0.77677680271E+03  0.77677680271E+03  0.00000000000E+00 0.  1.
         21    1    1    2  503  502  0.25677223490E+02  0.64962490409E+01 -0.66510719739E+03  0.66563436290E+03  0.00000000000E+00 0.  1.
         21    1    1    2  504  503 -0.25677223490E+02 -0.64962490409E+01 -0.10983177854E+03  0.11298026658E+03  0.00000000000E+00 0. -1.
<mgrwt>
<rscale>  2 0.26486243E+02</rscale>
<asrwt>0</asrwt>
<pdfrwt beam="1">  1       21 0.28274288E-03 0.26486243E+02</pdfrwt>
<pdfrwt beam="2">  1       21 0.11950400E+00 0.26486243E+02</pdfrwt>
<totfact> 0.12255142E+07</totfact>
</mgrwt>
</event>
<event>
 4    1  0.4353697E+006  0.2004250E+02  0.7546771E-02  0.1744484E+00
         21   -1    0    0  504  501  0.00000000000E+00  0.00000000000E+00  0.83801699705E+03  0.83801699705E+03  0.00000000000E+00 0.  1.
         21   -1    0    0  503  502 -0.00000000000E+00 -0.00000000000E+00 -0.15188192733E+01  0.15188192733E+01  0.00000000000E+00 0.  1.
         21    1    1    2  503  501  0.60673156103E+01  0.19102085297E+02  0.76551517862E+03  0.76577750730E+03  0.00000000000E+00 0.  1.
         21    1    1    2  504  502 -0.60673156103E+01 -0.19102085297E+02  0.70982999155E+02  0.73758309027E+02  0.00000000000E+00 0.  1.
<mgrwt>
<rscale>  2 0.20042504E+02</rscale>
<asrwt>0</asrwt>
<pdfrwt beam="1">  1       21 0.12892532E+00 0.20042504E+02</pdfrwt>
<pdfrwt beam="2">  1       21 0.23366517E-03 0.20042504E+02</pdfrwt>
<totfact> 0.12984265E+07</totfact>
</mgrwt>
</event>
<event>
 4    1  0.4353697E+006  0.2496543E+02  0.7546771E-02  0.1661499E+00
         21   -1    0    0  503  501  0.00000000000E+00  0.00000000000E+00  0.45266981662E+02  0.45266981662E+02  0.00000000000E+00 0. -1.
         21   -1    0    0  504  502 -0.00000000000E+00 -0.00000000000E+00 -0.29373756353E+02  0.29373756353E+02  0.00000000000E+00 0.  1.
         21    1    1    2  503  502 -0.21776735178E+02  0.12208465661E+02 -0.19255160512E+02  0.31528305300E+02  0.00000000000E+00 0.  1.
         21    1    1    2  504  501  0.21776735178E+02 -0.12208465661E+02  0.35148385821E+02  0.43112432715E+02  0.00000000000E+00 0. -1.
<mgrwt>
<rscale>  2 0.24965433E+02</rscale>
<asrwt>0</asrwt>
<pdfrwt beam="1">  1       21 0.69641510E-02 0.24965433E+02</pdfrwt>
<pdfrwt beam="2">  1       21 0.45190395E-02 0.24965433E+02</pdfrwt>
<totfact> 0.36095093E+07</totfact>
</mgrwt>
</event>
<event>
 4    1  0.4353697E+006  0.3100376E+02  0.7546771E-02  0.1587251E+00
         21   -1    0    0  504  501  0.00000000000E+00  0.00000000000E+00  0.39468453872E+03  0.39468453872E+03  0.00000000000E+00 0.  1.
         21   -1    0    0  503  502 -0.00000000000E+00 -0.00000000000E+00 -0.29595982875E+01  0.29595982875E+01  0.00000000000E+00 0.  1.
         21    1    1    2  503  501  0.29930310770E+02 -0.80876029779E+01  0.11219107593E+03  0.11639617839E+03  0.00000000000E+00 0.  1.
         21    1    1    2  504  502 -0.29930310770E+02  0.80876029779E+01  0.27953386450E+03  0.28124795862E+03  0.00000000000E+00 0.  1.
<mgrwt>
<rscale>  2 0.31003755E+02</rscale>
<asrwt>0</asrwt>
<pdfrwt beam="1">  1       21 0.60720657E-01 0.31003755E+02</pdfrwt>
<pdfrwt beam="2">  1       21 0.45532313E-03 0.31003755E+02</pdfrwt>
<totfact> 0.26645699E+07</totfact>
</mgrwt>
</event>
<event>
 4    1  0.4353697E+006  0.3765969E+02  0.7546771E-02  0.1526175E+00
         21   -1    0    0  503  501  0.00000000000E+00  0.00000000000E+00  0.79317108207E+01  0.79317108207E+01  0.00000000000E+00 0.  1.
         21   -1    0    0  504  502 -0.00000000000E+00 -0.00000000000E+00 -0.41852711116E+03  0.41852711116E+03  0.00000000000E+00 0. -1.
         21    1    1    2  503  502 -0.37653923816E+02  0.65903588883E+00 -0.36667288685E+03  0.36860176106E+03  0.00000000000E+00 0. -1.
         21    1    1    2  504  501  0.37653923816E+02 -0.65903588883E+00 -0.43922513493E+02  0.57857060923E+02  0.00000000000E+00 0.  1.
<mgrwt>
<rscale>  2 0.37659691E+02</rscale>
<asrwt>0</asrwt>
<pdfrwt beam="1">  1       21 0.12202632E-02 0.37659691E+02</pdfrwt>
<pdfrwt beam="2">  1       21 0.64388786E-01 0.37659691E+02</pdfrwt>
<totfact> 0.54835362E+06</totfact>
</mgrwt>
</event>
<event>
 4    1  0.4353697E+006  0.2657542E+02  0.7546771E-02  0.1639353E+00
         21   -1    0    0  502  501  0.00000000000E+00  0.00000000000E+00  0.78753214691E+01  0.78753214691E+01  0.00000000000E+00 0. -1.
         21   -1    0    0  504  502 -0.00000000000E+00 -0.00000000000E+00 -0.34393638554E+03  0.34393638554E+03  0.00000000000E+00 0. -1.
         21    1    1    2  503  501 -0.24947741484E+02 -0.91576926952E+01 -0.16786662091E+02  0.31433185724E+02  0.00000000000E+00 0. -1.
         21    1    1    2  504  503  0.24947741484E+02  0.91576926952E+01 -0.31927440198E+03  0.32037852129E+03  0.00000000000E+00 0. -1.
<mgrwt>
<rscale>  2 0.26575424E+02</rscale>
<asrwt>0</asrwt>
<pdfrwt beam="1">  1       21 0.12115882E-02 0.26575424E+02</pdfrwt>
<pdfrwt beam="2">  1       21 0.52913279E-01 0.26575424E+02</pdfrwt>
<totfact> 0.78707430E+06</totfact>
</mgrwt>
</event>
<event>
 4    1  0.4353697E+006  0.2012055E+02  0.7546771E-02  0.1742941E+00
         21   -1    0    0  504  501  0.00000000000E+00  0.00000000000E+00  0.53390448539E+01  0.53390448539E+01  0.00000000000E+00 0.  1.
         21   -1    0    0  503  502 -0.00000000000E+00 -0.00000000000E+00 -0.19362139623E+03  0.19362139623E+03  0.00000000000E+00 0.  1.
         21    1    1    2  503  501  0.19340513152E+02  0.55480638427E+01 -0.17173459652E+03  0.17290924817E+03  0.00000000000E+00 0.  1.
         21    1    1    2  504  502 -0.19340513152E+02 -0.55480638427E+01 -0.16547754857E+02  0.26051192913E+02  0.00000000000E+00 0.  1.
<mgrwt>
<rscale>  2 0.20120548E+02</rscale>
<asrwt>0</asrwt>
<pdfrwt beam="1">  1       21 0.82139150E-03 0.20120548E+02</pdfrwt>
<pdfrwt beam="2">  1       21 0.29787908E-01 0.20120548E+02</pdfrwt>
<totfact> 0.39404024E+07</totfact>
</mgrwt>
</event>
<event>
 4    1  0.4353697E+006  0.2990772E+02  0.7546771E-02  0.1599111E+00
         21   -1    0    0  502  501  0.00000000000E+00  0.00000000000E+00  0.28422301000E+02  0.28422301000E+02  0.00000000000E+00 0.  1.
         21   -1    0    0  504  502 -0.00000000000E+00 -0.00000000000E+00 -0.97705777032E+02  0.97705777032E+02  0.00000000000E+00 0.  1.
         21    1    1    2  503  501 -0.29836582757E+02  0.20616110956E+01  0.17281937777E+02  0.34541819353E+02  0.00000000000E+00 0.  1.
         21    1    1    2  504  503  0.29836582757E+02 -0.20616110956E+01 -0.86565413808E+02  0.91586258679E+02  0.00000000000E+00 0.  1.
<mgrwt>
<rscale>  2 0.29907723E+02</rscale>
<asrwt>0</asrwt>
<pdfrwt beam="1">  1       21 0.43726616E-02 0.29907723E+02</pdfrwt>
<pdfrwt beam="2">  1       21 0.15031658E-01 0.29907723E+02</pdfrwt>
<totfact> 0.10913603E+07</totfact>
</mgrwt>
</event>
<event>
 4    1  0.4353697E+006  0.2263380E+02  0.7546771E-02  0.1697516E+00
         21   -1    0    0  504  501  0.00000000000E+00  0.00000000000E+00  0.60208671581E+02  0.60208671581E+02  0.00000000000E+00 0.  1.
         21   -1    0    0  501  502 -0.00000000000E+00 -0.00000000000E+00 -0.66196334315E+02  0.66196334315E+02  0.00000000000E+00 0. -1.
         21    1    1    2  503  502 -0.19559767016E+02  0.11388777187E+02 -0.61994810881E+02  0.65997312883E+02  0.00000000000E+00 0. -1.
         21    1    1    2  504  503  0.19559767016E+02 -0.11388777187E+02  0.56007148147E+02  0.60407693013E+02  0.00000000000E+00 0.  1.
<mgrwt>
<rscale>  2 0.22633796E+02</rscale>
<asrwt>0</asrwt>
<pdfrwt beam="1">  1       21 0.92628726E-02 0.22633796E+02</pdfrwt>
<pdfrwt beam="2">  1       21 0.10184051E-01 0.22633796E+02</pdfrwt>
<totfact> 0.59502021E+06</totfact>
</mgrwt>
</event>
<event>
 4    1  0.4353697E+006  0.2148445E+02  0.7546771E-02  0.1717324E+00
         21   -1    0    0  503  501  0.00000000000E+00  0.00000000000E+00  0.14322331075E+02  0.14322331075E+02  0.00000000000E+00 0. -1.
         21   -1    0    0  504  502 -0.00000000000E+00 -0.00000000000E+00 -0.34967654660E+02  0.34967654660E+02  0.00000000000E+00 0.  1.
         21    1    1    2  503  502  0.19906740969E+02  0.80810472630E+01 -0.34244799362E+01  0.21755659579E+02  0.00000000000E+00 0. -1.
         21    1    1    2  504  501 -0.19906740969E+02 -0.80810472630E+01 -0.17220843648E+02  0.27534326156E+02  0.00000000000E+00 0.  1.
<mgrwt>
<rscale>  2 0.21484452E+02</rscale>
<asrwt>0</asrwt>
<pdfrwt beam="1">  1       21 0.22034356E-02 0.21484452E+02</pdfrwt>
<pdfrwt beam="2">  1       21 0.53796391E-02 0.21484452E+02</pdfrwt>
<totfact> 0.16103036E+08</totfact>
</mgrwt>
</event>
<event>
 4    1  0.4353697E+006  0.3037986E+02  0.7546771E-02  0.1593927E+00
         21   -1    0    0  502  501  0.00000000000E+00  0.00000000000E+00  0.59701702835E+03  0.59701702835E+03  0.00000000000E+00 0. -1.
         21   -1    0    0  504  502 -0.00000000000E+00 -0.00000000000E+00 -0.48801335412E+01  0.48801335412E+01  0.00000000000E+00 0.  1.
         21    1    1    2  503  501  0.25713502940E+00  0.30378769357E+02  0.54482451216E+03  0.54567085757E+03  0.00000000000E+00 0. -1.
         21    1    1    2  504  503 -0.25713502940E+00 -0.30378769357E+02  0.47312382642E+02  0.56226304318E+02  0.00000000000E+00 0.  1.
<mgrwt>
<rscale>  2 0.30379858E+02</rscale>
<asrwt>0</asrwt>
<pdfrwt beam="1">  1       21 0.91848716E-01 0.30379858E+02</pdfrwt>
<pdfrwt beam="2">  1       21 0.75079025E-03 0.30379858E+02</pdfrwt>
<totfact> 0.52754573E+06</totfact>
</mgrwt>
</event>
<event>
 4    1  0.4353697E+006  0.2341570E+02  0.7546771E-02  0.1684859E+00
         21   -1    0    0  503  501  0.00000000000E+00  0.00000000000E+00  0.40434530401E+02  0.40434530401E+02  0.00000000000E+00 0. -1.
         21   -1    0    0  504  502 -0.00000000000E+00 -0.00000000000E+00 -0.12587895691E+03  0.12587895691E+03  0.00000000000E+00 0. -1.
         21    1    1    2  503  502 -0.17753270079E+02  0.15268148632E+02 -0.12127241539E+03  0.12351232204E+03  0.00000000000E+00 0. -1.
         21    1    1    2  504  501  0.17753270079E+02 -0.15268148632E+02  0.35827988882E+02  0.42801165270E+02  0.00000000000E+00 0. -1.
<mgrwt>
<rscale>  2 0.23415699E+02</rscale>
<asrwt>0</asrwt>
<pdfrwt beam="1">  1       21 0.62206970E-02 0.23415699E+02</pdfrwt>
<pdfrwt beam="2">  1       21 0.19365993E-01 0.23415699E+02</pdfrwt>
<totfact> 0.38470924E+06</totfact>
</mgrwt>
</event>
<event>
 4    1  0.4353697E+006  0.2031644E+02  0.7546771E-02  0.1739107E+00
         21   -1    0    0  503  501  0.00000000000E+00  0.00000000000E+00  0.43298040696E+03  0.43298040696E+03  0.00000000000E+00 0.  1.
         21   -1    0    0  504  502 -0.00000000000E+00 -0.00000000000E+00 -0.13500815858E+01  0.13500815858E+01  0.00000000000E+00 0.  1.
         21    1    1    2  503  502 -0.12701822557E+02 -0.15856275687E+02  0.98084615865E+02  0.10016660943E+03  0.00000000000E+00 0.  1.
         21    1    1    2  504  501  0.12701822557E+02  0.15856275687E+02  0.33354570951E+03  0.33416387911E+03  0.00000000000E+00 0.  1.
<mgrwt>
<rscale>  2 0.20316441E+02</rscale>
<asrwt>0</asrwt>
<pdfrwt beam="1">  1       21 0.66612260E-01 0.20316441E+02</pdfrwt>
<pdfrwt beam="2">  1       21 0.20770520E-03 0.20316441E+02</pdfrwt>
<totfact> 0.63613246E+07</totfact>
</mgrwt>
</event>
<event>
 4    1  0.4353697E+006  0.3322281E+02  0.7546771E-02  0.1564974E+00
         21   -1    0    0  504  501  0.00000000000E+00  0.00000000000E+00  0.20816590427E+03  0.20816590427E+03  0.00000000000E+00 0. -1.
         21   -1    0    0  503  502 -0.00000000000E+00 -0.00000000000E+00 -0.65310493359E+02  0.65310493359E+02  0.00000000000E+00 0.  1.
         21    1    1    2  503  501 -0.33122480823E+02 -0.25799723560E+01  0.20249782698E+03  0.20520508017E+03  0.00000000000E+00 0. -1.
         21    1    1    2  504  502  0.33122480823E+02  0.25799723560E+01 -0.59642416072E+02  0.68271317463E+02  0.00000000000E+00 0.  1.
<mgrwt>
<rscale>  2 0.33222808E+02</rscale>
<asrwt>0</asrwt>
<pdfrwt beam="1">  1       21 0.32025524E-01 0.33222808E+02</pdfrwt>
<pdfrwt beam="2">  1       21 0.10047768E-01 0.33222808E+02</pdfrwt>
<totfact> 0.73344360E+05</totfact>
</mgrwt>
</event>
<event>
 4    1  0.4353697E+006  0.2451554E+02  0.7546771E-02  0.1668060E+00
         21   -1    0    0  503  501  0.00000000000E+00  0.00000000000E+00  0.19070608268E+02  0.19070608268E+02  0.00000000000E+00 0.  1.
         21   -1    0    0  504  502 -0.00000000000E+00 -0.00000000000E+00 -0.52829026393E+03  0.52829026393E+03  0.00000000000E+00 0.  1.
         21    1    1    2  503  502 -0.99076751259E+00 -0.24495506619E+02 -0.52000156827E+03  0.52057914141E+03  0.00000000000E+00 0.  1.
         21    1    1    2  504  501  0.99076751259E+00  0.24495506619E+02  0.10781912607E+02  0.26781730793E+02  0.00000000000E+00 0.  1.
<mgrwt>
<rscale>  2 0.24515535E+02</rscale>
<asrwt>0</asrwt>
<pdfrwt beam="1">  1       21 0.29339397E-02 0.24515535E+02</pdfrwt>
<pdfrwt beam="2">  1       21 0.81275426E-01 0.24515535E+02</pdfrwt>
<totfact> 0.83462625E+05</totfact>
</mgrwt>
</event>
<event>
 4    1  0.4353697E+006  0.2203625E+02  0.7546771E-02  0.1707626E+00
         21   -1    0    0  503  501  0.00000000000E+00  0.00000000000E+00  0.44927695688E+02  0.44927695688E+02  0.00000000000E+00 0. -1.
         21   -1    0    0  504  502 -0.00000000000E+00 -0.00000000000E+00 -0.13682437890E+03  0.13682437890E+03  0.00000000000E+00 0. -1.
         21    1    1    2  503  502  0.14387751355E+02 -0.16690977797E+02  0.41264504918E+02  0.46779862067E+02  0.00000000000E+00 0. -1.
         21    1    1    2  504  501 -0.14387751355E+02  0.16690977797E+02 -0.13316118813E+03  0.13497221252E+03  0.00000000000E+00 0. -1.
<mgrwt>
<rscale>  2 0.22036246E+02</rscale>
<asrwt>0</asrwt>
<pdfrwt beam="1">  1       21 0.69119533E-02 0.22036246E+02</pdfrwt>
<pdfrwt beam="2">  1       21 0.21049904E-01 0.22036246E+02</pdfrwt>
<totfact> 0.27810091E+06</totfact>
</mgrwt>
</event>
<event>
 4    1  0.4353697E+006  0.2426810E+02  0.7546771E-02  0.1671742E+00
         21   -1    0    0  503  501  0.00000000000E+00  0.00000000000E+00  0.74118304381E+02  0.74118304381E+02  0.00000000000E+00 0.  1.
         21   -1    0    0  501  502 -0.00000000000E+00 -0.00000000000E+00 -0.39461717237E+03  0.39461717237E+03  0.00000000000E+00 0.  1.
         21    1    1    2  503  504  0.12943688131E+02 -0.20528071994E+02  0.71746707121E+02  0.75739888995E+02  0.00000000000E+00 0.  1.
         21    1    1    2  504  502 -0.12943688131E+02  0.20528071994E+02 -0.39224557511E+03  0.39299558776E+03  0.00000000000E+00 0.  1.
<mgrwt>
<rscale>  2 0.24268103E+02</rscale>
<asrwt>0</asrwt>
<pdfrwt beam="1">  1       21 0.11402816E-01 0.24268103E+02</pdfrwt>
<pdfrwt beam="2">  1       21 0.60710335E-01 0.24268103E+02</pdfrwt>
<totfact> 0.17089759E+05</totfact>
</mgrwt>
</event>
<event>
 4    1  0.4353697E+006  0.2528870E+02  0.7546771E-02  0.1656889E+00
         21   -1    0    0  503  501  0.00000000000E+00  0.00000000000E+00  0.60669693690E+02  0.60669693690E+02  0.00000000000E+00 0. -1.
         21   -1    0    0  504  502 -0.00000000000E+00 -0.00000000000E+00 -0.16448502206E+02  0.16448502206E+02  0.00000000000E+00 0. -1.
         21    1    1    2  503  502 -0.19293427801E+02 -0.16348765104E+02  0.45218794597E+02  0.51809823987E+02  0.00000000000E+00 0. -1.
         21    1    1    2  504  501  0.19293427801E+02  0.16348765104E+02 -0.99760311237E+00  0.25308371910E+02  0.00000000000E+00 0. -1.
<mgrwt>
<rscale>  2 0.25288703E+02</rscale>
<asrwt>0</asrwt>
<pdfrwt beam="1">  1       21 0.93337989E-02 0.25288703E+02</pdfrwt>
<pdfrwt beam="2">  1       21 0.25305388E-02 0.25288703E+02</pdfrwt>
<totfact> 0.55697013E+07</totfact>
</mgrwt>
</event>
<event>
 4    1  0.4353697E+006  0.2196521E+02  0.7546771E-02  0.1708854E+00
         21   -1    0    0  504  501  0.00000000000E+00  0.00000000000E+00  0.76739886541E+02  0.76739886541E+02  0.00000000000E+00 0. -1.
         21   -1    0    0  503  502 -0.00000000000E+00 -0.00000000000E+00 -0.45446859045E+02  0.45446859045E+02  0.00000000000E+00 0.  1.
         21    1    1    2  503  501 -0.18387624045E+02 -0.12015228951E+02  0.72356851714E+02  0.75617355381E+02  0.00000000000E+00 0. -1.
         21    1    1    2  504  502  0.18387624045E+02  0.12015228951E+02 -0.41063824218E+02  0.46569390206E+02  0.00000000000E+00 0.  1.
<mgrwt>
<rscale>  2 0.21965210E+02</rscale>
<asrwt>0</asrwt>
<pdfrwt beam="1">  1       21 0.11806136E-01 0.21965210E+02</pdfrwt>
<pdfrwt beam="2">  1       21 0.69918245E-02 0.21965210E+02</pdfrwt>
<totfact> 0.73226146E+06</totfact>
</mgrwt>
</event>
<event>
 4    1  0.4353697E+006  0.2041104E+02  0.7546771E-02  0.1737275E+00
         21   -1    0    0  503  501  0.00000000000E+00  0.00000000000E+00  0.15407441135E+02  0.15407441135E+02  0.00000000000E+00 0.  1.
         21   -1    0    0  501  502 -0.00000000000E+00 -0.00000000000E+00 -0.28210351983E+02  0.28210351983E+02  0.00000000000E+00 0.  1.
         21    1    1    2  503  504  0.19667129256E+02  0.54602671164E+01 -0.10844376248E+02  0.23113004702E+02  0.00000000000E+00 0.  1.
         21    1    1    2  504  502 -0.19667129256E+02 -0.54602671164E+01 -0.19585346006E+01  0.20504788415E+02  0.00000000000E+00 0.  1.
<mgrwt>
<rscale>  2 0.20411038E+02</rscale>
<asrwt>0</asrwt>
<pdfrwt beam="1">  1       21 0.23703756E-02 0.20411038E+02</pdfrwt>
<pdfrwt beam="2">  1       21 0.43400541E-02 0.20411038E+02</pdfrwt>
<totfact> 0.19897873E+08</totfact>
</mgrwt>
</event>
<event>
 4    1  0.4353697E+006  0.2298614E+02  0.7546771E-02  0.1691735E+00
         21   -1    0    0  504  501  0.00000000000E+00  0.00000000000E+00  0.81046636327E+02  0.81046636327E+02  0.00000000000E+00 0.  1.
         21   -1    0    0  503  502 -0.00000000000E+00 -0.00000000000E+00 -0.14288443406E+02  0.14288443406E+02  0.00000000000E+00 0.  1.
         21    1    1    2  503  501 -0.16605744652E+02  0.15893762631E+02 -0.17703535841E+01  0.23054209981E+02  0.00000000000E+00 0.  1.
         21    1    1    2  504  502  0.16605744652E+02 -0.15893762631E+02  0.68528546505E+02  0.72280869752E+02  0.00000000000E+00 0.  1.
<mgrwt>
<rscale>  2 0.22986136E+02</rscale>
<asrwt>0</asrwt>
<pdfrwt beam="1">  1       21 0.12468713E-01 0.22986136E+02</pdfrwt>
<pdfrwt beam="2">  1       21 0.21982221E-02 0.22986136E+02</pdfrwt>
<totfact> 0.41739879E+07</totfact>
</mgrwt>
</event>
<event>
 4    1  0.4353697E+006  0.2270463E+02  0.7546771E-02  0.1696343E+00
         21   -1    0    0  504  501  0.00000000000E+00  0.00000000000E+00  0.95675756688E+01  0.95675756688E+01  0.00000000000E+00 0. -1.
         21   -1    0    0  503  502 -0.00000000000E+00 -0.00000000000E+00 -0.16701485157E+03  0.16701485157E+03  0.00000000000E+00 0. -1.
         21    1    1    2  503  501  0.17839810930E+02  0.14044266850E+02 -0.60564615998E+01  0.23498532135E+02  0.00000000000E+00 0. -1.
         21    1    1    2  504  502 -0.17839810930E+02 -0.14044266850E+02 -0.15139081430E+03  0.15308389510E+03  0.00000000000E+00 0. -1.
<mgrwt>
<rscale>  2 0.22704631E+02</rscale>
<asrwt>0</asrwt>
<pdfrwt beam="1">  1       21 0.14719349E-02 0.22704631E+02</pdfrwt>
<pdfrwt beam="2">  1       21 0.25694589E-01 0.22704631E+02</pdfrwt>
<totfact> 0.22008711E+07</totfact>
</mgrwt>
</event>
<event>
 4    1  0.4353697E+006  0.2217138E+02  0.7546771E-02  0.1705305E+00
         21   -1    0    0  503  501  0.00000000000E+00  0.00000000000E+00  0.11944218533E+02  0.11944218533E+02  0.00000000000E+00 0.  1.
         21   -1    0    0  501  502 -0.00000000000E+00 -0.00000000000E+00 -0.95013113834E+02  0.95013113834E+02  0.00000000000E+00 0.  1.
         21    1    1    2  503  504  0.20575914380E+02  0.82584346680E+01 -0.12708624522E+01  0.22207770872E+02  0.00000000000E+00 0.  1.
         21    1    1    2  504  502 -0.20575914380E+02 -0.82584346680E+01 -0.81798032849E+02  0.84749561495E+02  0.00000000000E+00 0.  1.
<mgrwt>
<rscale>  2 0.22171378E+02</rscale>
<asrwt>0</asrwt>
<pdfrwt beam="1">  1       21 0.18375720E-02 0.22171378E+02</pdfrwt>
<pdfrwt beam="2">  1       21 0.14617402E-01 0.22171378E+02</pdfrwt>
<totfact> 0.41633350E+07</totfact>
</mgrwt>
</event>
<event>
 4    1  0.4353697E+006  0.3057336E+02  0.7546771E-02  0.1591836E+00
         21   -1    0    0  503  501  0.00000000000E+00  0.00000000000E+00  0.10064190576E+03  0.10064190576E+03  0.00000000000E+00 0.  1.
         21   -1    0    0  504  502 -0.00000000000E+00 -0.00000000000E+00 -0.66656918639E+03  0.66656918639E+03  0.00000000000E+00 0.  1.
         21    1    1    2  503  502 -0.16258020958E+02 -0.25892219156E+02 -0.66388731541E+03  0.66459092517E+03  0.00000000000E+00 0.  1.
         21    1    1    2  504  501  0.16258020958E+02  0.25892219156E+02  0.97960034778E+02  0.10262016698E+03  0.00000000000E+00 0.  1.
<mgrwt>
<rscale>  2 0.30573359E+02</rscale>
<asrwt>0</asrwt>
<pdfrwt beam="1">  1       21 0.15483371E-01 0.30573359E+02</pdfrwt>
<pdfrwt beam="2">  1       21 0.10254910E+00 0.30573359E+02</pdfrwt>
<totfact> 0.33411736E+04</totfact>
</mgrwt>
</event>
<event>
 4    1  0.4353697E+006  0.2091760E+02  0.7546771E-02  0.1727673E+00
         21   -1    0    0  504  501  0.00000000000E+00  0.00000000000E+00  0.66454206203E+02  0.66454206203E+02  0.00000000000E+00 0.  1.
         21   -1    0    0  503  502 -0.00000000000E+00 -0.00000000000E+00 -0.57450534969E+02  0.57450534969E+02  0.00000000000E+00 0.  1.
         21    1    1    2  503  501 -0.12115794657E+02 -0.17051497659E+02 -0.53792482323E+02  0.57716351297E+02  0.00000000000E+00 0.  1.
         21    1    1    2  504  502  0.12115794657E+02  0.17051497659E+02  0.62796153557E+02  0.66188389874E+02  0.00000000000E+00 0.  1.
<mgrwt>
<rscale>  2 0.20917602E+02</rscale>
<asrwt>0</asrwt>
<pdfrwt beam="1">  1       21 0.10223724E-01 0.20917602E+02</pdfrwt>
<pdfrwt beam="2">  1       21 0.88385439E-02 0.20917602E+02</pdfrwt>
<totfact> 0.62963217E+06</totfact>
</mgrwt>
</event>
<event>
 4    1  0.4353697E+006  0.2527535E+02  0.7546771E-02  0.1657078E+00
         21   -1    0    0  503  501  0.00000000000E+00  0.00000000000E+00  0.37285170670E+00  0.37285170670E+00  0.00000000000E+00 0.  1.
         21   -1    0    0  504  502 -0.00000000000E+00 -0.00000000000E+00 -0.17377097563E+04  0.17377097563E+04  0.00000000000E+00 0.  1.
         21    1    1    2  503  502 -0.22664184707E+01  0.25173529545E+02 -0.76587558353E+03  0.76629253728E+03  0.00000000000E+00 0.  1.
         21    1    1    2  504  501  0.22664184707E+01 -0.25173529545E+02 -0.97146132103E+03  0.97179007070E+03  0.00000000000E+00 0.  1.
<mgrwt>
<rscale>  2 0.25275349E+02</rscale>
<asrwt>0</asrwt>
<pdfrwt beam="1">  1       21 0.57361950E-04 0.25275349E+02</pdfrwt>
<pdfrwt beam="2">  1       21 0.26733927E+00 0.25275349E+02</pdfrwt>
<totfact> 0.15476029E+07</totfact>
</mgrwt>
</event>
<event>
 4    1  0.4353697E+006  0.3508065E+02  0.7546771E-02  0.1547886E+00
         21   -1    0    0  504  501  0.00000000000E+00  0.00000000000E+00  0.57728392086E+01  0.57728392086E+01  0.00000000000E+00 0.  1.
         21   -1    0    0  503  502 -0.00000000000E+00 -0.00000000000E+00 -0.21350562279E+03  0.21350562279E+03  0.00000000000E+00 0.  1.
         21    1    1    2  503  501  0.32842479019E+02  0.12329781609E+02 -0.10815030222E+03  0.11369758050E+03  0.00000000000E+00 0.  1.
         21    1    1    2  504  502 -0.32842479019E+02 -0.12329781609E+02 -0.99582481362E+02  0.10558088149E+03  0.00000000000E+00 0.  1.
<mgrwt>
<rscale>  2 0.35080649E+02</rscale>
<asrwt>0</asrwt>
<pdfrwt beam="1">  1       21 0.88812906E-03 0.35080649E+02</pdfrwt>
<pdfrwt beam="2">  1       21 0.32847021E-01 0.35080649E+02</pdfrwt>
<totfact> 0.32977013E+07</totfact>
</mgrwt>
</event>
<event>
 4    1  0.4353697E+006  0.2631136E+02  0.7546771E-02  0.1642851E+00
         21   -1    0    0  503  501  0.00000000000E+00  0.00000000000E+00  0.17473779312E+01  0.17473779312E+01  0.00000000000E+00 0.  1.
         21   -1    0    0  504  502 -0.00000000000E+00 -0.00000000000E+00 -0.42808205402E+03  0.42808205402E+03  0.00000000000E+00 0.  1.
         21    1    1    2  503  502 -0.11172446457E+02  0.23821509348E+02 -0.27183063521E+03  0.27310104743E+03  0.00000000000E+00 0.  1.
         21    1    1    2  504  501  0.11172446457E+02 -0.23821509348E+02 -0.15450404087E+03  0.15672838452E+03  0.00000000000E+00 0.  1.
<mgrwt>
<rscale>  2 0.26311364E+02</rscale>
<asrwt>0</asrwt>
<pdfrwt beam="1">  1       21 0.26882712E-03 0.26311364E+02</pdfrwt>
<pdfrwt beam="2">  1       21 0.65858841E-01 0.26311364E+02</pdfrwt>
<totfact> 0.47548091E+07</totfact>
</mgrwt>
</event>
<event>
 4    1  0.4353697E+006  0.2937075E+02  0.7546771E-02  0.1605150E+00
         21   -1    0    0  504  501  0.00000000000E+00  0.00000000000E+00  0.50746349074E+02  0.50746349074E+02  0.00000000000E+00 0.  1.
         21   -1    0    0  501  502 -0.00000000000E+00 -0.00000000000E+00 -0.38642419972E+02  0.38642419972E+02  0.00000000000E+00 0.  1.
         21    1    1    2  503  502  0.21937286688E+02 -0.19529374748E+02 -0.27397023828E+02  0.40165133386E+02  0.00000000000E+00 0.  1.
         21    1    1    2  504  503 -0.21937286688E+02  0.19529374748E+02  0.39500952930E+02  0.49223635661E+02  0.00000000000E+00 0.  1.
<mgrwt>
<rscale>  2 0.29370751E+02</rscale>
<asrwt>0</asrwt>
<pdfrwt beam="1">  1       21 0.78071307E-02 0.29370751E+02</pdfrwt>
<pdfrwt beam="2">  1       21 0.59449877E-02 0.29370751E+02</pdfrwt>
<totfact> 0.19961592E+07</totfact>
</mgrwt>
</event>
<event>
 4    1  0.4353697E+006  0.2147344E+02  0.7546771E-02  0.1717521E+00
         21   -1    0    0  503  501  0.00000000000E+00  0.00000000000E+00  0.60761395880E+02  0.60761395880E+02  0.00000000000E+00 0.  1.
         21   -1    0    0  501  502 -0.00000000000E+00 -0.00000000000E+00 -0.29856757096E+03  0.29856757096E+03  0.00000000000E+00 0. -1.
         21    1    1    2  503  504 -0.16553220527E+02  0.13678438311E+02  0.58463387496E+02  0.62282232313E+02  0.00000000000E+00 0.  1.
         21    1    1    2  504  502  0.16553220527E+02 -0.13678438311E+02 -0.29626956257E+03  0.29704673453E+03  0.00000000000E+00 0. -1.
<mgrwt>
<rscale>  2 0.21473444E+02</rscale>
<asrwt>0</asrwt>
<pdfrwt beam="1">  1       21 0.93479071E-02 0.21473444E+02</pdfrwt>
<pdfrwt beam="2">  1       21 0.45933472E-01 0.21473444E+02</pdfrwt>
<totfact> 0.40833290E+05</totfact>
</mgrwt>
</event>
<event>
 4    1  0.4353697E+006  0.2652807E+02  0.7546771E-02  0.1639976E+00
         21   -1    0    0  503  501  0.00000000000E+00  0.00000000000E+00  0.18079342741E+04  0.18079342741E+04  0.00000000000E+00 0.  1.
         21   -1    0    0  501  502 -0.00000000000E+00 -0.00000000000E+00 -0.10363587784E+01  0.10363587784E+01  0.00000000000E+00 0. -1.
         21    1    1    2  503  504  0.25256499577E+02 -0.81146656221E+01  0.16181675387E+04  0.16183849733E+04  0.00000000000E+00 0.  1.
         21    1    1    2  504  502 -0.25256499577E+02  0.81146656221E+01  0.18873037660E+03  0.19058565953E+03  0.00000000000E+00 0. -1.
<mgrwt>
<rscale>  2 0.26528071E+02</rscale>
<asrwt>0</asrwt>
<pdfrwt beam="1">  1       21 0.27814121E+00 0.26528071E+02</pdfrwt>
<pdfrwt beam="2">  1       21 0.15944126E-03 0.26528071E+02</pdfrwt>
<totfact> 0.31852301E+06</totfact>
</mgrwt>
</event>
<event>
 4    1  0.4353697E+006  0.3340587E+02  0.7546771E-02  0.1563230E+00
         21   -1    0    0  502  501  0.00000000000E+00  0.00000000000E+00  0.15159564904E+03  0.15159564904E+03  0.00000000000E+00 0. -1.
         21   -1    0    0  503  502 -0.00000000000E+00 -0.00000000000E+00 -0.20432479827E+02  0.20432479827E+02  0.00000000000E+00 0.  1.
         21    1    1    2  503  504 -0.30725184982E+02 -0.13111650957E+02 -0.32147156821E+01  0.33560196363E+02  0.00000000000E+00 0.  1.
         21    1    1    2  504  501  0.30725184982E+02  0.13111650957E+02  0.13437788490E+03  0.13846793250E+03  0.00000000000E+00 0. -1.
<mgrwt>
<rscale>  2 0.33405873E+02</rscale>
<asrwt>0</asrwt>
<pdfrwt beam="1">  1       21 0.23322407E-01 0.33405873E+02</pdfrwt>
<pdfrwt beam="2">  1       21 0.31434585E-02 0.33405873E+02</pdfrwt>
<totfact> 0.86656737E+06</totfact>
</mgrwt>
</event>
<event>
 4    1  0.4353697E+006  0.2302102E+02  0.7546771E-02  0.1691170E+00
         21   -1    0    0  502  501  0.00000000000E+00  0.00000000000E+00  0.14387617464E+02  0.14387617464E+02  0.00000000000E+00 0.  1.
         21   -1    0    0  504  502 -0.00000000000E+00 -0.00000000000E+00 -0.71178314884E+03  0.71178314884E+03  0.00000000000E+00 0.  1.
         21    1    1    2  503  501 -0.15212439443E+02 -0.17278573582E+02  0.48679373625E+01  0.23530070825E+02  0.00000000000E+00 0.  1.
         21    1    1    2  504  503  0.15212439443E+02  0.17278573582E+02 -0.70226346874E+03  0.70264069548E+03  0.00000000000E+00 0.  1.
<mgrwt>
<rscale>  2 0.23021021E+02</rscale>
<asrwt>0</asrwt>
<pdfrwt beam="1">  1       21 0.22134793E-02 0.23021021E+02</pdfrwt>
<pdfrwt beam="2">  1       21 0.10950511E+00 0.23021021E+02</pdfrwt>
<totfact> 0.67392614E+05</totfact>
</mgrwt>
</event>
<event>
 4    1  0.4353697E+006  0.2713324E+02  0.7546771E-02  0.1632126E+00
         21   -1    0    0  503  501  0.00000000000E+00  0.00000000000E+00  0.32367117059E+02  0.32367117059E+02  0.00000000000E+00 0.  1.
         21   -1    0    0  504  502 -0.00000000000E+00 -0.00000000000E+00 -0.23677847760E+02  0.23677847760E+02  0.00000000000E+00 0.  1.
         21    1    1    2  503  502  0.27018174005E+02  0.24962127260E+01  0.99046676491E+01  0.28884515675E+02  0.00000000000E+00 0.  1.
         21    1    1    2  504  501 -0.27018174005E+02 -0.24962127260E+01 -0.12153983502E+01  0.27160449144E+02  0.00000000000E+00 0.  1.
<mgrwt>
<rscale>  2 0.27133242E+02</rscale>
<asrwt>0</asrwt>
<pdfrwt beam="1">  1       21 0.49795565E-02 0.27133242E+02</pdfrwt>
<pdfrwt beam="2">  1       21 0.36427458E-02 0.27133242E+02</pdfrwt>
<totfact> 0.89020713E+07</totfact>
</mgrwt>
</event>
<event>
 4    1  0.4353697E+006  0.2050935E+02  0.7546771E-02  0.1735385E+00
         21   -1    0    0  504  501  0.00000000000E+00  0.00000000000E+00  0.49937638988E+03  0.49937638988E+03  0.00000000000E+00 0. -1.
         21   -1    0    0  503  502 -0.00000000000E+00 -0.00000000000E+00 -0.14416787856E+02  0.14416787856E+02  0.00000000000E+00 0. -1.
         21    1    1    2  503  501  0.15657497287E+02  0.13246747949E+02 -0.67991037533E+01  0.21606974901E+02  0.00000000000E+00 0. -1.
         21    1    1    2  504  502 -0.15657497287E+02 -0.13246747949E+02  0.49175870578E+03  0.49218620283E+03  0.00000000000E+00 0. -1.
<mgrwt>
<rscale>  2 0.20509353E+02</rscale>
<asrwt>0</asrwt>
<pdfrwt beam="1">  1       21 0.76827124E-01 0.20509353E+02</pdfrwt>
<pdfrwt beam="2">  1       21 0.22179677E-02 0.20509353E+02</pdfrwt>
<totfact> 0.14231131E+06</totfact>
</mgrwt>
</event>
<event>
 4    1  0.4353697E+006  0.2553805E+02  0.7546771E-02  0.1653392E+00
         21   -1    0    0  504  501  0.00000000000E+00  0.00000000000E+00  0.17687069853E+02  0.17687069853E+02  0.00000000000E+00 0. -1.
         21   -1    0    0  503  502 -0.00000000000E+00 -0.00000000000E+00 -0.37072046047E+02  0.37072046047E+02  0.00000000000E+00 0. -1.
         21    1    1    2  503  501  0.85625222361E+01  0.24059824502E+02 -0.11693974598E+02  0.28088093278E+02  0.00000000000E+00 0. -1.
         21    1    1    2  504  502 -0.85625222361E+01 -0.24059824502E+02 -0.76910015963E+01  0.26671022621E+02  0.00000000000E+00 0. -1.
<mgrwt>
<rscale>  2 0.25538049E+02</rscale>
<asrwt>0</asrwt>
<pdfrwt beam="1">  1       21 0.27210877E-02 0.25538049E+02</pdfrwt>
<pdfrwt beam="2">  1       21 0.57033917E-02 0.25538049E+02</pdfrwt>
<totfact> 0.11133262E+08</totfact>
</mgrwt>
</event>
<event>
 4    1  0.4353697E+006  0.2589743E+02  0.7546771E-02  0.1648437E+00
         21   -1    0    0  503  501  0.00000000000E+00  0.00000000000E+00  0.21277918464E+03  0.21277918464E+03  0.00000000000E+00 0.  1.
         21   -1    0    0  504  502 -0.00000000000E+00 -0.00000000000E+00 -0.15139623118E+02  0.15139623118E+02  0.00000000000E+00 0.  1.
         21    1    1    2  503  502  0.21826491423E+02 -0.13938483236E+02  0.20022479444E+03  0.20189265799E+03  0.00000000000E+00 0.  1.
         21    1    1    2  504  501 -0.21826491423E+02  0.13938483236E+02 -0.25852329119E+01  0.26026149772E+02  0.00000000000E+00 0.  1.
<mgrwt>
<rscale>  2 0.25897433E+02</rscale>
<asrwt>0</asrwt>
<pdfrwt beam="1">  1       21 0.32735257E-01 0.25897433E+02</pdfrwt>
<pdfrwt beam="2">  1       21 0.23291729E-02 0.25897433E+02</pdfrwt>
<totfact> 0.71893610E+06</totfact>
</mgrwt>
</event>
<event>
 4    1  0.4353697E+006  0.2115216E+02  0.7546771E-02  0.1723341E+00
         21   -1    0    0  503  501  0.00000000000E+00  0.00000000000E+00  0.16684952042E+03  0.16684952042E+03  0.00000000000E+00 0. -1.
         21   -1    0    0  504  502 -0.00000000000E+00 -0.00000000000E+00 -0.10702455029E+02  0.10702455029E+02  0.00000000000E+00 0.  1.
         21    1    1    2  503  502  0.10457146725E+01 -0.21126292464E+02  0.15492740430E+03  0.15636468385E+03  0.00000000000E+00 0. -1.
         21    1    1    2  504  501 -0.10457146725E+01  0.21126292464E+02  0.12196610979E+01  0.21187291607E+02  0.00000000000E+00 0.  1.
<mgrwt>
<rscale>  2 0.21152157E+02</rscale>
<asrwt>0</asrwt>
<pdfrwt beam="1">  1       21 0.25669155E-01 0.21152157E+02</pdfrwt>
<pdfrwt beam="2">  1       21 0.16465317E-02 0.21152157E+02</pdfrwt>
<totfact> 0.18310266E+07</totfact>
</mgrwt>
</event>
<event>
 4    1  0.4353697E+006  0.2235007E+02  0.7546771E-02  0.1702267E+00
         21   -1    0    0  504  501  0.00000000000E+00  0.00000000000E+00  0.30051201602E+03  0.30051201602E+03  0.00000000000E+00 0. -1.
         21   -1    0    0  503  502 -0.00000000000E+00 -0.00000000000E+00 -0.22056645552E+01  0.22056645552E+01  0.00000000000E+00 0. -1.
         21    1    1    2  503  501 -0.13697124071E+02 -0.17661102666E+02  0.22428157739E+03  0.22539243934E+03  0.00000000000E+00 0. -1.
         21    1    1    2  504  502  0.13697124071E+02  0.17661102666E+02  0.74024774073E+02  0.77325241233E+02  0.00000000000E+00 0. -1.
<mgrwt>
<rscale>  2 0.22350073E+02</rscale>
<asrwt>0</asrwt>
<pdfrwt beam="1">  1       21 0.46232585E-01 0.22350073E+02</pdfrwt>
<pdfrwt beam="2">  1       21 0.33933325E-03 0.22350073E+02</pdfrwt>
<totfact> 0.65645787E+07</totfact>
</mgrwt>
</event>
<event>
 4    1  0.4353697E+006  0.2037776E+02  0.7546771E-02  0.1737919E+00
         21   -1    0    0  504  501  0.00000000000E+00  0.00000000000E+00  0.57939745217E+01  0.57939745217E+01  0.00000000000E+00 0.  1.
         21   -1    0    0  503  502 -0.00000000000E+00 -0.00000000000E+00 -0.23485163806E+03  0.23485163806E+03  0.00000000000E+00 0. -1.
         21    1    1    2  503  501 -0.94499621295E-01 -0.20377536155E+02 -0.14232029795E+02  0.24855654930E+02  0.00000000000E+00 0.  1.
         21    1    1    2  504  502  0.94499621295E-01  0.20377536155E+02 -0.21482563374E+03  0.21578995765E+03  0.00000000000E+00 0. -1.
<mgrwt>
<rscale>  2 0.20377755E+02</rscale>
<asrwt>0</asrwt>
<pdfrwt beam="1">  1       21 0.89138078E-03 0.20377755E+02</pdfrwt>
<pdfrwt beam="2">  1       21 0.36131018E-01 0.20377755E+02</pdfrwt>
<totfact> 0.24590807E+07</totfact>
</mgrwt>
</event>
<event>
 4    1  0.4353697E+006  0.2139166E+02  0.7546771E-02  0.1718990E+00
         21   -1    0    0  504  501  0.00000000000E+00  0.00000000000E+00  0.10768803167E+01  0.10768803167E+01  0.00000000000E+00 0.  1.
         21   -1    0    0  501  502 -0.00000000000E+00 -0.00000000000E+00 -0.59111205053E+03  0.59111205053E+03  0.00000000000E+00 0.  1.
         21    1    1    2  503  502 -0.17100435308E+02  0.12852163674E+02 -0.45201130787E+03  0.45251721011E+03  0.00000000000E+00 0.  1.
         21    1    1    2  504  503  0.17100435308E+02 -0.12852163674E+02 -0.13802386235E+03  0.13967172074E+03  0.00000000000E+00 0.  1.
<mgrwt>
<rscale>  2 0.21391657E+02</rscale>
<asrwt>0</asrwt>
<pdfrwt beam="1">  1       21 0.16567366E-03 0.21391657E+02</pdfrwt>
<pdfrwt beam="2">  1       21 0.90940446E-01 0.21391657E+02</pdfrwt>
<totfact> 0.46656356E+07</totfact>
</mgrwt>
</event>
<event>
 4    1  0.4353697E+006  0.2083028E+02  0.7546771E-02  0.1729304E+00
         21   -1    0    0  504  501  0.00000000000E+00  0.00000000000E+00  0.10582950907E+03  0.10582950907E+03  0.00000000000E+00 0.  1.
         21   -1    0    0  503  502 -0.00000000000E+00 -0.00000000000E+00 -0.34698984532E+03  0.34698984532E+03  0.00000000000E+00 0. -1.
         21    1    1    2  503  501 -0.33406417707E+01  0.20560654840E+02 -0.34564825435E+03  0.34627534731E+03  0.00000000000E+00 0. -1.
         21    1    1    2  504  502  0.33406417707E+01 -0.20560654840E+02  0.10448791810E+03  0.10654400708E+03  0.00000000000E+00 0.  1.
<mgrwt>
<rscale>  2 0.20830276E+02</rscale>
<asrwt>0</asrwt>
<pdfrwt beam="1">  1       21 0.16281463E-01 0.20830276E+02</pdfrwt>
<pdfrwt beam="2">  1       21 0.53383054E-01 0.20830276E+02</pdfrwt>
<totfact> 0.12057750E+05</totfact>
</mgrwt>
</event>
<event>
 4    1  0.4353697E+006  0.2809014E+02  0.7546771E-02  0.1620213E+00
         21   -1    0    0  502  501  0.00000000000E+00  0.00000000000E+00  0.49723070969E+01  0.49723070969E+01  0.00000000000E+00 0. -1.
         21   -1    0    0  503  502 -0.00000000000E+00 -0.00000000000E+00 -0.52479433487E+03  0.52479433487E+03  0.00000000000E+00 0.  1.
         21    1    1    2  503  504  0.15355504449E+00  0.28089717336E+02 -0.48115039413E+03  0.48196966457E+03  0.00000000000E+00 0.  1.
         21    1    1    2  504  501 -0.15355504449E+00 -0.28089717336E+02 -0.38671633644E+02  0.47796977393E+02  0.00000000000E+00 0. -1.
<mgrwt>
<rscale>  2 0.28090137E+02</rscale>
<asrwt>0</asrwt>
<pdfrwt beam="1">  1       21 0.76496990E-03 0.28090137E+02</pdfrwt>
<pdfrwt beam="2">  1       21 0.80737635E-01 0.28090137E+02</pdfrwt>
<totfact> 0.66986290E+06</totfact>
</mgrwt>
</event>
<event>
 4    1  0.4353697E+006  0.2404102E+02  0.7546771E-02  0.1675171E+00
         21   -1    0    0  502  501  0.00000000000E+00  0.00000000000E+00  0.50518390667E+02  0.50518390667E+02  0.00000000000E+00 0.  1.
         21   -1    0    0  504  502 -0.00000000000E+00 -0.00000000000E+00 -0.39297208756E+02  0.39297208756E+02  0.00000000000E+00 0.  1.
         21    1    1    2  503  501 -0.11668372557E+02  0.21019503068E+02  0.43420318375E+02  0.49631587474E+02  0.00000000000E+00 0.  1.
         21    1    1    2  504  503  0.11668372557E+02 -0.21019503068E+02 -0.32199136464E+02  0.40184011950E+02  0.00000000000E+00 0.  1.
<mgrwt>
<rscale>  2 0.24041016E+02</rscale>
<asrwt>0</asrwt>
<pdfrwt beam="1">  1       21 0.77720601E-02 0.24041016E+02</pdfrwt>
<pdfrwt beam="2">  1       21 0.60457244E-02 0.24041016E+02</pdfrwt>
<totfact> 0.18794399E+07</totfact>
</mgrwt>
</event>
<event>
 4    1  0.4353697E+006  0.2234188E+02  0.7546771E-02  0.1702406E+00
         21   -1    0    0  504  501  0.00000000000E+00  0.00000000000E+00  0.67564284602E+00  0.67564284602E+00  0.00000000000E+00 0.  1.
         21   -1    0    0  503  502 -0.00000000000E+00 -0.00000000000E+00 -0.74716245987E+03  0.74716245987E+03  0.00000000000E+00 0.  1.
         21    1    1    2  503  501  0.22254101378E+02  0.19785310778E+01 -0.41282028455E+03  0.41342441504E+03  0.00000000000E+00 0.  1.
         21    1    1    2  504  502 -0.22254101378E+02 -0.19785310778E+01 -0.33366653248E+03  0.33441368768E+03  0.00000000000E+00 0.  1.
<mgrwt>
<rscale>  2 0.22341880E+02</rscale>
<asrwt>0</asrwt>
<pdfrwt beam="1">  1       21 0.10394489E-03 0.22341880E+02</pdfrwt>
<pdfrwt beam="2">  1       21 0.11494825E+00 0.22341880E+02</pdfrwt>
<totfact> 0.54888779E+07</totfact>
</mgrwt>
</event>
<event>
 4    1  0.4353697E+006  0.2182318E+02  0.7546771E-02  0.1711328E+00
         21   -1    0    0  503  501  0.00000000000E+00  0.00000000000E+00  0.39727136089E+02  0.39727136089E+02  0.00000000000E+00 0.  1.
         21   -1    0    0  504  502 -0.00000000000E+00 -0.00000000000E+00 -0.10904336810E+03  0.10904336810E+03  0.00000000000E+00 0. -1.
         21    1    1    2  503  502 -0.93709147943E+01  0.19708812964E+02 -0.10483544803E+03  0.10708278347E+03  0.00000000000E+00 0. -1.
         21    1    1    2  504  501  0.93709147943E+01 -0.19708812964E+02  0.35519216016E+02  0.41687720721E+02  0.00000000000E+00 0.  1.
<mgrwt>
<rscale>  2 0.21823184E+02</rscale>
<asrwt>0</asrwt>
<pdfrwt beam="1">  1       21 0.61118673E-02 0.21823184E+02</pdfrwt>
<pdfrwt beam="2">  1       21 0.16775902E-01 0.21823184E+02</pdfrwt>
<totfact> 0.50146255E+06</totfact>
</mgrwt>
</event>
<event>
 4    1  0.4353697E+006  0.2945951E+02  0.7546771E-02  0.1604141E+00
         21   -1    0    0  504  501  0.00000000000E+00  0.00000000000E+00  0.47933922590E+02  0.47933922590E+02  0.00000000000E+00 0. -1.
         21   -1    0    0  503  502 -0.00000000000E+00 -0.00000000000E+00 -0.18110173680E+02  0.18110173680E+02  0.00000000000E+00 0. -1.
         21    1    1    2  503  501  0.13640594948E+02 -0.26111241288E+02  0.15448108819E+02  0.33264197243E+02  0.00000000000E+00 0. -1.
         21    1    1    2  504  502 -0.13640594948E+02  0.26111241288E+02  0.14375640092E+02  0.32779899027E+02  0.00000000000E+00 0. -1.
<mgrwt>
<rscale>  2 0.29459510E+02</rscale>
<asrwt>0</asrwt>
<pdfrwt beam="1">  1       21 0.73744496E-02 0.29459510E+02</pdfrwt>
<pdfrwt beam="2">  1       21 0.27861806E-02 0.29459510E+02</pdfrwt>
<totfact> 0.73333973E+07</totfact>
</mgrwt>
</event>
<event>
 4    1  0.4353697E+006  0.2188215E+02  0.7546771E-02  0.1710298E+00
         21   -1    0    0  503  501  0.00000000000E+00  0.00000000000E+00  0.87028691727E+02  0.87028691727E+02  0.00000000000E+00 0. -1.
         21   -1    0    0  504  502 -0.00000000000E+00 -0.00000000000E+00 -0.90219850739E+01  0.90219850739E+01  0.00000000000E+00 0. -1.
         21    1    1    2  503  502 -0.94217195783E+01 -0.19749928792E+02  0.90053613436E+01  0.23662734838E+02  0.00000000000E+00 0. -1.
         21    1    1    2  504  501  0.94217195783E+01  0.19749928792E+02  0.69001345309E+02  0.72387941963E+02  0.00000000000E+00 0. -1.
<mgrwt>
<rscale>  2 0.21882150E+02</rscale>
<asrwt>0</asrwt>
<pdfrwt beam="1">  1       21 0.13389029E-01 0.21882150E+02</pdfrwt>
<pdfrwt beam="2">  1       21 0.13879978E-02 0.21882150E+02</pdfrwt>
<totfact> 0.73738117E+07</totfact>
</mgrwt>
</event>
<event>
 4    1  0.4353697E+006  0.3876029E+02  0.7546771E-02  0.1517538E+00
         21   -1    0    0  503  501  0.00000000000E+00  0.00000000000E+00  0.15666516585E+03  0.15666516585E+03  0.00000000000E+00 0. -1.
         21   -1    0    0  504  502 -0.00000000000E+00 -0.00000000000E+00 -0.63590148550E+02  0.63590148550E+02  0.00000000000E+00 0.  1.
         21    1    1    2  503  502  0.73877660490E+01 -0.38049719322E+02  0.14802218356E+03  0.15301283297E+03  0.00000000000E+00 0. -1.
         21    1    1    2  504  501 -0.73877660490E+01  0.38049719322E+02 -0.54947166265E+02  0.67242481425E+02  0.00000000000E+00 0.  1.
<mgrwt>
<rscale>  2 0.38760292E+02</rscale>
<asrwt>0</asrwt>
<pdfrwt beam="1">  1       21 0.24102333E-01 0.38760292E+02</pdfrwt>
<pdfrwt beam="2">  1       21 0.97830998E-02 0.38760292E+02</pdfrwt>
<totfact> 0.13050162E+06</totfact>
</mgrwt>
</event>
<event>
 4    1  0.4353697E+006  0.2189071E+02  0.7546771E-02  0.1710149E+00
         21   -1    0    0  504  501  0.00000000000E+00  0.00000000000E+00  0.54199178999E+03  0.54199178999E+03  0.00000000000E+00 0. -1.
         21   -1    0    0  503  502 -0.00000000000E+00 -0.00000000000E+00 -0.63968869936E+01  0.63968869936E+01  0.00000000000E+00 0.  1.
         21    1    1    2  503  501 -0.15834450608E+02 -0.15115331124E+02  0.13256474608E+02  0.25591740466E+02  0.00000000000E+00 0.  1.
         21    1    1    2  504  502  0.15834450608E+02  0.15115331124E+02  0.52233842839E+03  0.52279693652E+03  0.00000000000E+00 0. -1.
<mgrwt>
<rscale>  2 0.21890707E+02</rscale>
<asrwt>0</asrwt>
<pdfrwt beam="1">  1       21 0.83383316E-01 0.21890707E+02</pdfrwt>
<pdfrwt beam="2">  1       21 0.98413689E-03 0.21890707E+02</pdfrwt>
<totfact> 0.41414708E+06</totfact>
</mgrwt>
</event>
<event>
 4    1  0.4353697E+006  0.2852490E+02  0.7546771E-02  0.1614991E+00
         21   -1    0    0  503  501  0.00000000000E+00  0.00000000000E+00  0.58996005158E+02  0.58996005158E+02  0.00000000000E+00 0.  1.
         21   -1    0    0  504  502 -0.00000000000E+00 -0.00000000000E+00 -0.17730560044E+02  0.17730560044E+02  0.00000000000E+00 0. -1.
         21    1    1    2  503  502 -0.28516647062E+02 -0.68632201249E+00  0.25515830084E+01  0.28638798393E+02  0.00000000000E+00 0. -1.
         21    1    1    2  504  501  0.28516647062E+02  0.68632201249E+00  0.38713862106E+02  0.48087766809E+02  0.00000000000E+00 0.  1.
<mgrwt>
<rscale>  2 0.28524905E+02</rscale>
<asrwt>0</asrwt>
<pdfrwt beam="1">  1       21 0.90763084E-02 0.28524905E+02</pdfrwt>
<pdfrwt beam="2">  1       21 0.27277785E-02 0.28524905E+02</pdfrwt>
<totfact> 0.53411525E+07</totfact>
</mgrwt>
</event>
<event>
 4    1  0.4353697E+006  0.2243477E+02  0.7546771E-02  0.1700840E+00
         21   -1    0    0  503  501  0.00000000000E+00  0.00000000000E+00  0.49750183146E+01  0.49750183146E+01  0.00000000000E+00 0.  1.
         21   -1    0    0  504  502 -0.00000000000E+00 -0.00000000000E+00 -0.21471842531E+03  0.21471842531E+03  0.00000000000E+00 0.  1.
         21    1    1    2  503  502  0.19108318378E+02  0.11755472241E+02 -0.24990536197E+02  0.33583416417E+02  0.00000000000E+00 0.  1.
         21    1    1    2  504  501 -0.19108318378E+02 -0.11755472241E+02 -0.18475287080E+03  0.18611002721E+03  0.00000000000E+00 0.  1.
<mgrwt>
<rscale>  2 0.22434771E+02</rscale>
<asrwt>0</asrwt>
<pdfrwt beam="1">  1       21 0.76538722E-03 0.22434771E+02</pdfrwt>
<pdfrwt beam="2">  1       21 0.33033613E-01 0.22434771E+02</pdfrwt>
<totfact> 0.37220351E+07</totfact>
</mgrwt>
</event>
<event>
 4    1  0.4353697E+006  0.2139975E+02  0.7546771E-02  0.1718845E+00
         21   -1    0    0  503  501  0.00000000000E+00  0.00000000000E+00  0.40154685267E+02  0.40154685267E+02  0.00000000000E+00 0. -1.
         21   -1    0    0  504  502 -0.00000000000E+00 -0.00000000000E+00 -0.12677318581E+02  0.12677318581E+02  0.00000000000E+00 0. -1.
         21    1    1    2  503  502  0.14832211696E+02 -0.15425781162E+02  0.53688871276E+01  0.22062959394E+02  0.00000000000E+00 0. -1.
         21    1    1    2  504  501 -0.14832211696E+02  0.15425781162E+02  0.22108479558E+02  0.30769044454E+02  0.00000000000E+00 0. -1.
<mgrwt>
<rscale>  2 0.21399748E+02</rscale>
<asrwt>0</asrwt>
<pdfrwt beam="1">  1       21 0.61776438E-02 0.21399748E+02</pdfrwt>
<pdfrwt beam="2">  1       21 0.19503567E-02 0.21399748E+02</pdfrwt>
<totfact> 0.15543461E+08</totfact>
</mgrwt>
</event>
<event>
 4    1  0.4353697E+006  0.2390637E+02  0.7546771E-02  0.1677226E+00
         21   -1    0    0  503  501  0.00000000000E+00  0.00000000000E+00  0.84784296226E+02  0.84784296226E+02  0.00000000000E+00 0.  1.
         21   -1    0    0  504  502 -0.00000000000E+00 -0.00000000000E+00 -0.15380680106E+02  0.15380680106E+02  0.00000000000E+00 0.  1.
         21    1    1    2  503  502  0.23186276242E+02  0.58233435131E+01 -0.28345179518E+01  0.24073828687E+02  0.00000000000E+00 0.  1.
         21    1    1    2  504  501 -0.23186276242E+02 -0.58233435131E+01  0.72238134072E+02  0.76091147645E+02  0.00000000000E+00 0.  1.
<mgrwt>
<rscale>  2 0.23906374E+02</rscale>
<asrwt>0</asrwt>
<pdfrwt beam="1">  1       21 0.13043738E-01 0.23906374E+02</pdfrwt>
<pdfrwt beam="2">  1       21 0.23662585E-02 0.23906374E+02</pdfrwt>
<totfact> 0.34869728E+07</totfact>
</mgrwt>
</event>
<event>
 4    1  0.4353697E+006  0.2202372E+02  0.7546771E-02  0.1707842E+00
         21   -1    0    0  503  501  0.00000000000E+00  0.00000000000E+00  0.67128890486E+02  0.67128890486E+02  0.00000000000E+00 0.  1.
         21   -1    0    0  501  502 -0.00000000000E+00 -0.00000000000E+00 -0.15093871660E+02  0.15093871660E+02  0.00000000000E+00 0.  1.
         21    1    1    2  503  504  0.19645213202E+02  0.99553838782E+01  0.55700142013E+02  0.59896159227E+02  0.00000000000E+00 0.  1.
         21    1    1    2  504  502 -0.19645213202E+02 -0.99553838782E+01 -0.36651231871E+01  0.22326602919E+02  0.00000000000E+00 0.  1.
<mgrwt>
<rscale>  2 0.22023716E+02</rscale>
<asrwt>0</asrwt>
<pdfrwt beam="1">  1       21 0.10327521E-01 0.22023716E+02</pdfrwt>
<pdfrwt beam="2">  1       21 0.23221342E-02 0.22023716E+02</pdfrwt>
<totfact> 0.51937242E+07</totfact>
</mgrwt>
</event>
<event>
 4    1  0.4353697E+006  0.3890969E+02  0.7546771E-02  0.1516392E+00
         21   -1    0    0  502  501  0.00000000000E+00  0.00000000000E+00  0.21101156433E+03  0.21101156433E+03  0.00000000000E+00 0. -1.
         21   -1    0    0  503  502 -0.00000000000E+00 -0.00000000000E+00 -0.13429764029E+02  0.13429764029E+02  0.00000000000E+00 0. -1.
         21    1    1    2  503  504  0.85305695526E+01  0.37963050142E+02  0.22204549185E+02  0.44799618274E+02  0.00000000000E+00 0. -1.
         21    1    1    2  504  501 -0.85305695526E+01 -0.37963050142E+02  0.17537725111E+03  0.17964171008E+03  0.00000000000E+00 0. -1.
<mgrwt>
<rscale>  2 0.38909688E+02</rscale>
<asrwt>0</asrwt>
<pdfrwt beam="1">  1       21 0.32463315E-01 0.38909688E+02</pdfrwt>
<pdfrwt beam="2">  1       21 0.20661177E-02 0.38909688E+02</pdfrwt>
<totfact> 0.93314934E+06</totfact>
</mgrwt>
</event>
<event>
 4    1  0.4353697E+006  0.2107915E+02  0.7546771E-02  0.1724682E+00
         21   -1    0    0  503  501  0.00000000000E+00  0.00000000000E+00  0.39599782310E+03  0.39599782310E+03  0.00000000000E+00 0.  1.
         21   -1    0    0  501  502 -0.00000000000E+00 -0.00000000000E+00 -0.21246948411E+01  0.21246948411E+01  0.00000000000E+00 0. -1.
         21    1    1    2  503  504 -0.19123263344E+02 -0.88674257868E+01  0.33368155731E+03  0.33434669451E+03  0.00000000000E+00 0.  1.
         21    1    1    2  504  502  0.19123263344E+02  0.88674257868E+01  0.60191570947E+02  0.63775823429E+02  0.00000000000E+00 0. -1.
<mgrwt>
<rscale>  2 0.21079147E+02</rscale>
<asrwt>0</asrwt>
<pdfrwt beam="1">  1       21 0.60922684E-01 0.21079147E+02</pdfrwt>
<pdfrwt beam="2">  1       21 0.32687644E-03 0.21079147E+02</pdfrwt>
<totfact> 0.39838618E+07</totfact>
</mgrwt>
</event>
<event>
 4    1  0.4353697E+006  0.2110177E+02  0.7546771E-02  0.1724266E+00
         21   -1    0    0  504  501  0.00000000000E+00  0.00000000000E+00  0.48542878066E+03  0.48542878066E+03  0.00000000000E+00 0.  1.
         21   -1    0    0  503  502 -0.00000000000E+00 -0.00000000000E+00 -0.97968247661E+00  0.97968247661E+00  0.00000000000E+00 0.  1.
         21    1    1    2  503  501 -0.20554178261E+02 -0.47760421809E+01  0.30359404772E+03  0.30432651976E+03  0.00000000000E+00 0.  1.
         21    1    1    2  504  502  0.20554178261E+02  0.47760421809E+01  0.18085505047E+03  0.18208194338E+03  0.00000000000E+00 0.  1.
<mgrwt>
<rscale>  2 0.21101773E+02</rscale>
<asrwt>0</asrwt>
<pdfrwt beam="1">  1       21 0.74681158E-01 0.21101773E+02</pdfrwt>
<pdfrwt beam="2">  1       21 0.15072077E-03 0.21101773E+02</pdfrwt>
<totfact> 0.80553384E+07</totfact>
</mgrwt>
</event>
<event>
 4    1  0.4353697E+006  0.3000752E+02  0.7546771E-02  0.1598006E+00
         21   -1    0    0  504  501  0.00000000000E+00  0.00000000000E+00  0.75351430469E+02  0.75351430469E+02  0.00000000000E+00 0. -1.
         21   -1    0    0  503  502 -0.00000000000E+00 -0.00000000000E+00 -0.13125198364E+02  0.13125198364E+02  0.00000000000E+00 0. -1.
         21    1    1    2  503  501 -0.21147089108E+02  0.21289712908E+02  0.44350347219E+02  0.53548151713E+02  0.00000000000E+00 0. -1.
         21    1    1    2  504  502  0.21147089108E+02 -0.21289712908E+02  0.17875884886E+02  0.34928477120E+02  0.00000000000E+00 0. -1.
<mgrwt>
<rscale>  2 0.30007520E+02</rscale>
<asrwt>0</asrwt>
<pdfrwt beam="1">  1       21 0.11592528E-01 0.30007520E+02</pdfrwt>
<pdfrwt beam="2">  1       21 0.20192613E-02 0.30007520E+02</pdfrwt>
<totfact> 0.57305673E+07</totfact>
</mgrwt>
</event>
<event>
 4    1  0.4353697E+006  0.2329821E+02  0.7546771E-02  0.1686721E+00
         21   -1    0    0  504  501  0.00000000000E+00  0.00000000000E+00  0.29923962942E+01  0.29923962942E+01  0.00000000000E+00 0.  1.
         21   -1    0    0  503  502 -0.00000000000E+00 -0.00000000000E+00 -0.19929170392E+03  0.19929170392E+03  0.00000000000E+00 0.  1.
         21    1    1    2  503  501 -0.14943324261E+02  0.17874659689E+02 -0.67840700464E+02  0.71729819730E+02  0.00000000000E+00 0.  1.
         21    1    1    2  504  502  0.14943324261E+02 -0.17874659689E+02 -0.12845860716E+03  0.13055428048E+03  0.00000000000E+00 0.  1.
<mgrwt>
<rscale>  2 0.23298206E+02</rscale>
<asrwt>0</asrwt>
<pdfrwt beam="1">  1       21 0.46036863E-03 0.23298206E+02</pdfrwt>
<pdfrwt beam="2">  1       21 0.30660264E-01 0.23298206E+02</pdfrwt>
<totfact> 0.91440859E+07</totfact>
</mgrwt>
</event>
<event>
 4    1  0.4353697E+006  0.4301924E+02  0.7546771E-02  0.1487100E+00
         21   -1    0    0  502  501  0.00000000000E+00  0.00000000000E+00  0.68733425259E+02  0.68733425259E+02  0.00000000000E+00 0.  1.
         21   -1    0    0  504  502 -0.00000000000E+00 -0.00000000000E+00 -0.13491777349E+03  0.13491777349E+03  0.00000000000E+00 0.  1.
         21    1    1    2  503  501  0.16484032309E+02  0.39735775841E+02  0.58008064348E+02  0.72219046880E+02  0.00000000000E+00 0.  1.
         21    1    1    2  504  503 -0.16484032309E+02 -0.39735775841E+02 -0.12419241258E+03  0.13143215187E+03  0.00000000000E+00 0.  1.
<mgrwt>
<rscale>  2 0.43019242E+02</rscale>
<asrwt>0</asrwt>
<pdfrwt beam="1">  1       21 0.10574373E-01 0.43019242E+02</pdfrwt>
<pdfrwt beam="2">  1       21 0.20756581E-01 0.43019242E+02</pdfrwt>
<totfact> 0.15087401E+06</totfact>
</mgrwt>
</event>
<event>
 4    1  0.4353697E+006  0.3263273E+02  0.7546771E-02  0.1570687E+00
         21   -1    0    0  503  501  0.00000000000E+00  0.00000000000E+00  0.65752301434E+02  0.65752301434E+02  0.00000000000E+00 0.  1.
         21   -1    0    0  501  502 -0.00000000000E+00 -0.00000000000E+00 -0.31549774992E+02  0.31549774992E+02  0.00000000000E+00 0.  1.
         21    1    1    2  503  504 -0.31282285718E+02 -0.92905102592E+01  0.51040952817E+02  0.60581134399E+02  0.00000000000E+00 0.  1.
         21    1    1    2  504  502  0.31282285718E+02  0.92905102592E+01 -0.16838426374E+02  0.36720942027E+02  0.00000000000E+00 0.  1.
<mgrwt>
<rscale>  2 0.32632729E+02</rscale>
<asrwt>0</asrwt>
<pdfrwt beam="1">  1       21 0.10115739E-01 0.32632729E+02</pdfrwt>
<pdfrwt beam="2">  1       21 0.48538115E-02 0.32632729E+02</pdfrwt>
<totfact> 0.18358185E+07</totfact>
</mgrwt>
</event>
<event>
 4    1  0.4353697E+006  0.2074919E+02  0.7546771E-02  0.1730827E+00
         21   -1    0    0  504  501  0.00000000000E+00  0.00000000000E+00  0.19292669592E+03  0.19292669592E+03  0.00000000000E+00 0. -1.
         21   -1    0    0  503  502 -0.00000000000E+00 -0.00000000000E+00 -0.55542561806E+01  0.55542561806E+01  0.00000000000E+00 0. -1.
         21    1    1    2  503  501 -0.19615573952E+02 -0.67644643425E+01  0.16928725810E+02  0.26778918515E+02  0.00000000000E+00 0. -1.
         21    1    1    2  504  502  0.19615573952E+02  0.67644643425E+01  0.17044371393E+03  0.17170203359E+03  0.00000000000E+00 0. -1.
<mgrwt>
<rscale>  2 0.20749186E+02</rscale>
<asrwt>0</asrwt>
<pdfrwt beam="1">  1       21 0.29681025E-01 0.20749186E+02</pdfrwt>
<pdfrwt beam="2">  1       21 0.85450110E-03 0.20749186E+02</pdfrwt>
<totfact> 0.37681270E+07</totfact>
</mgrwt>
</event>
<event>
 4    1  0.4353697E+006  0.4051874E+02  0.7546771E-02  0.1504428E+00
         21   -1    0    0  504  501  0.00000000000E+00  0.00000000000E+00  0.10502265153E+04  0.10502265153E+04  0.00000000000E+00 0.  1.
         21   -1    0    0  503  502 -0.00000000000E+00 -0.00000000000E+00 -0.24983536901E+01  0.24983536901E+01  0.00000000000E+00 0. -1.
         21    1    1    2  503  501 -0.36909564821E+02 -0.16716832902E+02  0.20184070635E+03  0.20586752833E+03  0.00000000000E+00 0. -1.
         21    1    1    2  504  502  0.36909564821E+02  0.16716832902E+02  0.84588745521E+03  0.84685734062E+03  0.00000000000E+00 0.  1.
<mgrwt>
<rscale>  2 0.40518742E+02</rscale>
<asrwt>0</asrwt>
<pdfrwt beam="1">  1       21 0.16157296E+00 0.40518742E+02</pdfrwt>
<pdfrwt beam="2">  1       21 0.38436294E-03 0.40518742E+02</pdfrwt>
<totfact> 0.39691390E+06</totfact>
</mgrwt>
</event>
<event>
 4    1  0.4353697E+006  0.2965780E+02  0.7546771E-02  0.1601902E+00
         21   -1    0    0  504  501  0.00000000000E+00  0.00000000000E+00  0.20427755672E+02  0.20427755672E+02  0.00000000000E+00 0. -1.
         21   -1    0    0  503  502 -0.00000000000E+00 -0.00000000000E+00 -0.16491950379E+03  0.16491950379E+03  0.00000000000E+00 0.  1.
         21    1    1    2  503  501  0.29039238888E+02  0.60256037384E+01  0.74164220995E+01  0.30571042056E+02  0.00000000000E+00 0. -1.
         21    1    1    2  504  502 -0.29039238888E+02 -0.60256037384E+01 -0.15190817021E+03  0.15477621740E+03  0.00000000000E+00 0.  1.
<mgrwt>
<rscale>  2 0.29657803E+02</rscale>
<asrwt>0</asrwt>
<pdfrwt beam="1">  1       21 0.31427317E-02 0.29657803E+02</pdfrwt>
<pdfrwt beam="2">  1       21 0.25372231E-01 0.29657803E+02</pdfrwt>
<totfact> 0.73217700E+06</totfact>
</mgrwt>
</event>
<event>
 4    1  0.4353697E+006  0.3112536E+02  0.7546771E-02  0.1585972E+00
         21   -1    0    0  503  501  0.00000000000E+00  0.00000000000E+00  0.88162194582E+03  0.88162194582E+03  0.00000000000E+00 0. -1.
         21   -1    0    0  504  502 -0.00000000000E+00 -0.00000000000E+00 -0.76241134562E+01  0.76241134562E+01  0.00000000000E+00 0.  1.
         21    1    1    2  503  502 -0.30374570755E+02  0.67951228673E+01  0.84833387915E+03  0.84890468179E+03  0.00000000000E+00 0. -1.
         21    1    1    2  504  501  0.30374570755E+02 -0.67951228673E+01  0.25663953215E+02  0.40341377492E+02  0.00000000000E+00 0.  1.
<mgrwt>
<rscale>  2 0.31125363E+02</rscale>
<asrwt>0</asrwt>
<pdfrwt beam="1">  1       21 0.13563406E+00 0.31125363E+02</pdfrwt>
<pdfrwt beam="2">  1       21 0.11729412E-02 0.31125363E+02</pdfrwt>
<totfact> 0.11122612E+06</totfact>
</mgrwt>
</event>
<event>
 4    1  0.4353697E+006  0.2334399E+02  0.7546771E-02  0.1685994E+00
         21   -1    0    0  504  501  0.00000000000E+00  0.00000000000E+00  0.16358650769E+03  0.16358650769E+03  0.00000000000E+00 0. -1.
         21   -1    0    0  503  502 -0.00000000000E+00 -0.00000000000E+00 -0.22764926014E+03  0.22764926014E+03  0.00000000000E+00 0.  1.
         21    1    1    2  503  501 -0.17877505200E+02  0.15011221700E+02  0.16214998447E+03  0.16382173065E+03  0.00000000000E+00 0. -1.
         21    1    1    2  504  502  0.17877505200E+02 -0.15011221700E+02 -0.22621273692E+03  0.22741403719E+03  0.00000000000E+00 0.  1.
<mgrwt>
<rscale>  2 0.23343992E+02</rscale>
<asrwt>0</asrwt>
<pdfrwt beam="1">  1       21 0.25167155E-01 0.23343992E+02</pdfrwt>
<pdfrwt beam="2">  1       21 0.35022963E-01 0.23343992E+02</pdfrwt>
<totfact> 0.12584102E+05</totfact>
</mgrwt>
</event>
<event>
 4    1  0.4353697E+006  0.2566233E+02  0.7546771E-02  0.1651667E+00
         21   -1    0    0  502  501  0.00000000000E+00  0.00000000000E+00  0.10562040885E+03  0.10562040885E+03  0.00000000000E+00 0. -1.
         21   -1    0    0  503  502 -0.00000000000E+00 -0.00000000000E+00 -0.19331435881E+03  0.19331435881E+03  0.00000000000E+00 0. -1.
         21    1    1    2  503  504 -0.23484493355E+02  0.10345718148E+02 -0.19088416015E+03  0.19260144836E+03  0.00000000000E+00 0. -1.
         21    1    1    2  504  501  0.23484493355E+02 -0.10345718148E+02  0.10319021020E+03  0.10633331930E+03  0.00000000000E+00 0. -1.
<mgrwt>
<rscale>  2 0.25662333E+02</rscale>
<asrwt>0</asrwt>
<pdfrwt beam="1">  1       21 0.16249294E-01 0.25662333E+02</pdfrwt>
<pdfrwt beam="2">  1       21 0.29740670E-01 0.25662333E+02</pdfrwt>
<totfact> 0.36671641E+05</totfact>
</mgrwt>
</event>
<event>
 4    1  0.4353697E+006  0.2417043E+02  0.7546771E-02  0.1673211E+00
         21   -1    0    0  502  501  0.00000000000E+00  0.00000000000E+00  0.19804541397E+03  0.19804541397E+03  0.00000000000E+00 0. -1.
         21   -1    0    0  503  502 -0.00000000000E+00 -0.00000000000E+00 -0.28242598778E+03  0.28242598778E+03  0.00000000000E+00 0. -1.
         21    1    1    2  503  504 -0.12282140868E+02 -0.20817263596E+02 -0.28116809050E+03  0.28220507537E+03  0.00000000000E+00 0. -1.
         21    1    1    2  504  501  0.12282140868E+02  0.20817263596E+02  0.19678751670E+03  0.19826632638E+03  0.00000000000E+00 0. -1.
<mgrwt>
<rscale>  2 0.24170425E+02</rscale>
<asrwt>0</asrwt>
<pdfrwt beam="1">  1       21 0.30468525E-01 0.24170425E+02</pdfrwt>
<pdfrwt beam="2">  1       21 0.43450152E-01 0.24170425E+02</pdfrwt>
<totfact> 0.59387338E+04</totfact>
</mgrwt>
</event>
<event>
 4    1  0.4353697E+006  0.2143931E+02  0.7546771E-02  0.1718133E+00
         21   -1    0    0  503  501  0.00000000000E+00  0.00000000000E+00  0.23870460772E+01  0.23870460772E+01  0.00000000000E+00 0.  1.
         21   -1    0    0  504  502 -0.00000000000E+00 -0.00000000000E+00 -0.33051414146E+03  0.33051414146E+03  0.00000000000E+00 0.  1.
         21    1    1    2  503  502 -0.72574180744E+01 -0.20173597952E+02 -0.27160137849E+03  0.27244623868E+03  0.00000000000E+00 0.  1.
         21    1    1    2  504  501  0.72574180744E+01  0.20173597952E+02 -0.56525716889E+02  0.60454948856E+02  0.00000000000E+00 0.  1.
<mgrwt>
<rscale>  2 0.21439314E+02</rscale>
<asrwt>0</asrwt>
<pdfrwt beam="1">  1       21 0.36723814E-03 0.21439314E+02</pdfrwt>
<pdfrwt beam="2">  1       21 0.50848291E-01 0.21439314E+02</pdfrwt>
<totfact> 0.48179989E+07</totfact>
</mgrwt>
</event>
<event>
 4    1  0.4353697E+006  0.2372616E+02  0.7546771E-02  0.1680003E+00
         21   -1    0    0  502  501  0.00000000000E+00  0.00000000000E+00  0.36742331309E+02  0.36742331309E+02  0.00000000000E+00 0. -1.
         21   -1    0    0  503  502 -0.00000000000E+00 -0.00000000000E+00 -0.45672008831E+03  0.45672008831E+03  0.00000000000E+00 0. -1.
         21    1    1    2  503  504 -0.23701306815E+02  0.10856103129E+01 -0.45254639125E+03  0.45316792332E+03  0.00000000000E+00 0. -1.
         21    1    1    2  504  501  0.23701306815E+02 -0.10856103129E+01  0.32568634252E+02  0.40294496294E+02  0.00000000000E+00 0. -1.
<mgrwt>
<rscale>  2 0.23726156E+02</rscale>
<asrwt>0</asrwt>
<pdfrwt beam="1">  1       21 0.56526664E-02 0.23726156E+02</pdfrwt>
<pdfrwt beam="2">  1       21 0.70264629E-01 0.23726156E+02</pdfrwt>
<totfact> 0.39996729E+05</totfact>
</mgrwt>
</event>
<event>
 4    1  0.4353697E+006  0.2339343E+02  0.7546771E-02  0.1685211E+00
         21   -1    0    0  504  501  0.00000000000E+00  0.00000000000E+00  0.40402268006E+03  0.40402268006E+03  0.00000000000E+00 0. -1.
         21   -1    0    0  503  502 -0.00000000000E+00 -0.00000000000E+00 -0.17821280898E+02  0.17821280898E+02  0.00000000000E+00 0.  1.
         21    1    1    2  503  501  0.86342775343E+01  0.21741706649E+02 -0.96473154457E+01  0.25304609300E+02  0.00000000000E+00 0.  1.
         21    1    1    2  504  502 -0.86342775343E+01 -0.21741706649E+02  0.39584871460E+03  0.39653935165E+03  0.00000000000E+00 0. -1.
<mgrwt>
<rscale>  2 0.23393430E+02</rscale>
<asrwt>0</asrwt>
<pdfrwt beam="1">  1       21 0.62157329E-01 0.23393430E+02</pdfrwt>
<pdfrwt beam="2">  1       21 0.27417358E-02 0.23393430E+02</pdfrwt>
<totfact> 0.16042261E+06</totfact>
</mgrwt>
</event>
<event>
 4    1  0.4353697E+006  0.2081869E+02  0.7546771E-02  0.1729521E+00
         21   -1    0    0  504  501  0.00000000000E+00  0.00000000000E+00  0.15269519400E+02  0.15269519400E+02  0.00000000000E+00 0.  1.
         21   -1    0    0  503  502 -0.00000000000E+00 -0.00000000000E+00 -0.76162524541E+02  0.76162524541E+02  0.00000000000E+00 0.  1.
         21    1    1    2  503  501  0.19173841862E+02 -0.81105861219E+01  0.57621045394E+01  0.21601381153E+02  0.00000000000E+00 0.  1.
         21    1    1    2  504  502 -0.19173841862E+02  0.81105861219E+01 -0.66655109680E+02  0.69830662788E+02  0.00000000000E+00 0.  1.
<mgrwt>
<rscale>  2 0.20818689E+02</rscale>
<asrwt>0</asrwt>
<pdfrwt beam="1">  1       21 0.23491569E-02 0.20818689E+02</pdfrwt>
<pdfrwt beam="2">  1       21 0.11717311E-01 0.20818689E+02</pdfrwt>
<totfact> 0.40778537E+07</totfact>
</mgrwt>
</event>
<event>
 4    1  0.4353697E+006  0.2887067E+02  0.7546771E-02  0.1610918E+00
         21   -1    0    0  504  501  0.00000000000E+00  0.00000000000E+00  0.38638840209E+01  0.38638840209E+01  0.00000000000E+00 0.  1.
         21   -1    0    0  503  502 -0.00000000000E+00 -0.00000000000E+00 -0.96642606733E+03  0.96642606733E+03  0.00000000000E+00 0.  1.
         21    1    1    2  503  501  0.16888457678E+01 -0.28821234255E+02 -0.90886591478E+03  0.90932434631E+03  0.00000000000E+00 0.  1.
         21    1    1    2  504  502 -0.16888457678E+01  0.28821234255E+02 -0.53696268528E+02  0.60965605040E+02  0.00000000000E+00 0.  1.
<mgrwt>
<rscale>  2 0.28870673E+02</rscale>
<asrwt>0</asrwt>
<pdfrwt beam="1">  1       21 0.59444296E-03 0.28870673E+02</pdfrwt>
<pdfrwt beam="2">  1       21 0.14868112E+00 0.28870673E+02</pdfrwt>
<totfact> 0.24788172E+06</totfact>
</mgrwt>
</event>
<event>
 4    1  0.4353697E+006  0.2547645E+02  0.7546771E-02  0.1654251E+00
         21   -1    0    0  502  501  0.00000000000E+00  0.00000000000E+00  0.45344186609E+01  0.45344186609E+01  0.00000000000E+00 0. -1.
         21   -1    0    0  503  502 -0.00000000000E+00 -0.00000000000E+00 -0.79611741591E+03  0.79611741591E+03  0.00000000000E+00 0. -1.
         21    1    1    2  503  504  0.57481825891E+01 -0.24819507466E+02 -0.75834720806E+03  0.75877502432E+03  0.00000000000E+00 0. -1.
         21    1    1    2  504  501 -0.57481825891E+01  0.24819507466E+02 -0.33235789182E+02  0.41876810247E+02  0.00000000000E+00 0. -1.
<mgrwt>
<rscale>  2 0.25476451E+02</rscale>
<asrwt>0</asrwt>
<pdfrwt beam="1">  1       21 0.69760312E-03 0.25476451E+02</pdfrwt>
<pdfrwt beam="2">  1       21 0.12247956E+00 0.25476451E+02</pdfrwt>
<totfact> 0.30374698E+06</totfact>
</mgrwt>
</event>
<event>
 4    1  0.4353697E+006  0.2554865E+02  0.7546771E-02  0.1653244E+00
         21   -1    0    0  503  501  0.00000000000E+00  0.00000000000E+00  0.30952420721E+01  0.30952420721E+01  0.00000000000E+00 0.  1.
         21   -1    0    0  504  502 -0.00000000000E+00 -0.00000000000E+00 -0.22178687048E+03  0.22178687048E+03  0.00000000000E+00 0.  1.
         21    1    1    2  503  502 -0.22331226395E+02 -0.12411689065E+02 -0.84414288187E+02  0.88195837475E+02  0.00000000000E+00 0.  1.
         21    1    1    2  504  501  0.22331226395E+02  0.12411689065E+02 -0.13427734022E+03  0.13668627508E+03  0.00000000000E+00 0.  1.
<mgrwt>
<rscale>  2 0.25548654E+02</rscale>
<asrwt>0</asrwt>
<pdfrwt beam="1">  1       21 0.47619090E-03 0.25548654E+02</pdfrwt>
<pdfrwt beam="2">  1       21 0.34121070E-01 0.25548654E+02</pdfrwt>
<totfact> 0.73130131E+07</totfact>
</mgrwt>
</event>
<event>
 4    1  0.4353697E+006  0.2910112E+02  0.7546771E-02  0.1608242E+00
         21   -1    0    0  502  501  0.00000000000E+00  0.00000000000E+00  0.42324036597E+02  0.42324036597E+02  0.00000000000E+00 0.  1.
         21   -1    0    0  503  502 -0.00000000000E+00 -0.00000000000E+00 -0.65493238985E+02  0.65493238985E+02  0.00000000000E+00 0.  1.
         21    1    1    2  503  504 -0.23585224061E+01  0.29005387724E+02 -0.56509702721E+02  0.63562737878E+02  0.00000000000E+00 0.  1.
         21    1    1    2  504  501  0.23585224061E+01 -0.29005387724E+02  0.33340500333E+02  0.44254537704E+02  0.00000000000E+00 0.  1.
<mgrwt>
<rscale>  2 0.29101119E+02</rscale>
<asrwt>0</asrwt>
<pdfrwt beam="1">  1       21 0.65113903E-02 0.29101119E+02</pdfrwt>
<pdfrwt beam="2">  1       21 0.10075883E-01 0.29101119E+02</pdfrwt>
<totfact> 0.11261231E+07</totfact>
</mgrwt>
</event>
<event>
 4    1  0.4353697E+006  0.2137146E+02  0.7546771E-02  0.1719355E+00
         21   -1    0    0  502  501  0.00000000000E+00  0.00000000000E+00  0.67741017919E+01  0.67741017919E+01  0.00000000000E+00 0.  1.
         21   -1    0    0  504  502 -0.00000000000E+00 -0.00000000000E+00 -0.72069727472E+02  0.72069727472E+02  0.00000000000E+00 0.  1.
         21    1    1    2  503  501  0.20586840163E+02  0.57377057892E+01 -0.22639224099E+02  0.31133161154E+02  0.00000000000E+00 0.  1.
         21    1    1    2  504  503 -0.20586840163E+02 -0.57377057892E+01 -0.42656401581E+02  0.47710668110E+02  0.00000000000E+00 0.  1.
<mgrwt>
<rscale>  2 0.21371459E+02</rscale>
<asrwt>0</asrwt>
<pdfrwt beam="1">  1       21 0.10421696E-02 0.21371459E+02</pdfrwt>
<pdfrwt beam="2">  1       21 0.11087650E-01 0.21371459E+02</pdfrwt>
<totfact> 0.15458477E+08</totfact>
</mgrwt>
</event>
<event>
 4    1  0.4353697E+006  0.2846314E+02  0.7546771E-02  0.1615725E+00
         21   -1    0    0  503  501  0.00000000000E+00  0.00000000000E+00  0.93222272598E+01  0.93222272598E+01  0.00000000000E+00 0.  1.
         21   -1    0    0  504  502 -0.00000000000E+00 -0.00000000000E+00 -0.53866271261E+03  0.53866271261E+03  0.00000000000E+00 0. -1.
         21    1    1    2  503  502 -0.27999779868E+02  0.51149220770E+01 -0.51558884417E+03  0.51637390168E+03  0.00000000000E+00 0. -1.
         21    1    1    2  504  501  0.27999779868E+02 -0.51149220770E+01 -0.13751641181E+02  0.31611038194E+02  0.00000000000E+00 0.  1.
<mgrwt>
<rscale>  2 0.28463136E+02</rscale>
<asrwt>0</asrwt>
<pdfrwt beam="1">  1       21 0.14341884E-02 0.28463136E+02</pdfrwt>
<pdfrwt beam="2">  1       21 0.82871210E-01 0.28463136E+02</pdfrwt>
<totfact> 0.24497538E+06</totfact>
</mgrwt>
</event>
<event>
 4    1  0.4353697E+006  0.3617606E+02  0.7546771E-02  0.1538398E+00
         21   -1    0    0  504  501  0.00000000000E+00  0.00000000000E+00  0.17306437481E+03  0.17306437481E+03  0.00000000000E+00 0.  1.
         21   -1    0    0  503  502 -0.00000000000E+00 -0.00000000000E+00 -0.17608500235E+02  0.17608500235E+02  0.00000000000E+00 0.  1.
         21    1    1    2  503  501  0.23867377167E+02 -0.27185576880E+02  0.14974009507E+03  0.15404805534E+03  0.00000000000E+00 0.  1.
         21    1    1    2  504  502 -0.23867377167E+02  0.27185576880E+02  0.57157795084E+01  0.36624819707E+02  0.00000000000E+00 0.  1.
<mgrwt>
<rscale>  2 0.36176060E+02</rscale>
<asrwt>0</asrwt>
<pdfrwt beam="1">  1       21 0.26625287E-01 0.36176060E+02</pdfrwt>
<pdfrwt beam="2">  1       21 0.27090002E-02 0.36176060E+02</pdfrwt>
<totfact> 0.87187813E+06</totfact>
</mgrwt>
</event>
<event>
 4    1  0.4353697E+006  0.2075949E+02  0.7546771E-02  0.1730633E+00
         21   -1    0    0  503  501  0.00000000000E+00  0.00000000000E+00  0.14008082549E+03  0.14008082549E+03  0.00000000000E+00 0. -1.
         21   -1    0    0  504  502 -0.00000000000E+00 -0.00000000000E+00 -0.13920866035E+02  0.13920866035E+02  0.00000000000E+00 0.  1.
         21    1    1    2  503  502 -0.36814732818E+01 -0.20430450384E+02  0.13104176116E+03  0.13267591988E+03  0.00000000000E+00 0. -1.
         21    1    1    2  504  501  0.36814732818E+01  0.20430450384E+02 -0.48818017032E+01  0.21325771645E+02  0.00000000000E+00 0.  1.
<mgrwt>
<rscale>  2 0.20759493E+02</rscale>
<asrwt>0</asrwt>
<pdfrwt beam="1">  1       21 0.21550895E-01 0.20759493E+02</pdfrwt>
<pdfrwt beam="2">  1       21 0.21416718E-02 0.20759493E+02</pdfrwt>
<totfact> 0.16624806E+07</totfact>
</mgrwt>
</event>
<event>
 4    1  0.4353697E+006  0.2079847E+02  0.7546771E-02  0.1729900E+00
         21   -1    0    0  503  501  0.00000000000E+00  0.00000000000E+00  0.16067196804E+03  0.16067196804E+03  0.00000000000E+00 0.  1.
         21   -1    0    0  504  502 -0.00000000000E+00 -0.00000000000E+00 -0.31424657531E+01  0.31424657531E+01  0.00000000000E+00 0.  1.
         21    1    1    2  503  502  0.32670442143E+01  0.20540271243E+02  0.10976574218E+03  0.11171881882E+03  0.00000000000E+00 0.  1.
         21    1    1    2  504  501 -0.32670442143E+01 -0.20540271243E+02  0.47763760105E+02  0.52095614978E+02  0.00000000000E+00 0.  1.
<mgrwt>
<rscale>  2 0.20798469E+02</rscale>
<asrwt>0</asrwt>
<pdfrwt beam="1">  1       21 0.24718758E-01 0.20798469E+02</pdfrwt>
<pdfrwt beam="2">  1       21 0.48345640E-03 0.20798469E+02</pdfrwt>
<totfact> 0.12147674E+08</totfact>
</mgrwt>
</event>
<event>
 4    1  0.4353697E+006  0.2266524E+02  0.7546771E-02  0.1696995E+00
         21   -1    0    0  504  501  0.00000000000E+00  0.00000000000E+00  0.30982744645E+02  0.30982744645E+02  0.00000000000E+00 0.  1.
         21   -1    0    0  501  502 -0.00000000000E+00 -0.00000000000E+00 -0.18748477655E+02  0.18748477655E+02  0.00000000000E+00 0.  1.
         21    1    1    2  503  502 -0.74342766817E+01 -0.21411321048E+02 -0.23382135751E+01  0.22785530091E+02  0.00000000000E+00 0.  1.
         21    1    1    2  504  503  0.74342766817E+01  0.21411321048E+02  0.14572480565E+02  0.26945692209E+02  0.00000000000E+00 0.  1.
<mgrwt>
<rscale>  2 0.22665241E+02</rscale>
<asrwt>0</asrwt>
<pdfrwt beam="1">  1       21 0.47665761E-02 0.22665241E+02</pdfrwt>
<pdfrwt beam="2">  1       21 0.28843812E-02 0.22665241E+02</pdfrwt>
<totfact> 0.13089568E+08</totfact>
</mgrwt>
</event>
<event>
 4    1  0.4353697E+006  0.2320174E+02  0.7546771E-02  0.1688261E+00
         21   -1    0    0  504  501  0.00000000000E+00  0.00000000000E+00  0.12830359646E+03  0.12830359646E+03  0.00000000000E+00 0.  1.
         21   -1    0    0  503  502 -0.00000000000E+00 -0.00000000000E+00 -0.62157773479E+03  0.62157773479E+03  0.00000000000E+00 0. -1.
         21    1    1    2  503  501 -0.22181219735E+02  0.68054612571E+01 -0.62031015828E+03  0.62074391925E+03  0.00000000000E+00 0. -1.
         21    1    1    2  504  502  0.22181219735E+02 -0.68054612571E+01  0.12703601996E+03  0.12913741201E+03  0.00000000000E+00 0.  1.
<mgrwt>
<rscale>  2 0.23201742E+02</rscale>
<asrwt>0</asrwt>
<pdfrwt beam="1">  1       21 0.19739014E-01 0.23201742E+02</pdfrwt>
<pdfrwt beam="2">  1       21 0.95627346E-01 0.23201742E+02</pdfrwt>
<totfact> 0.26022889E+04</totfact>
</mgrwt>
</event>
<event>
 4    1  0.4353697E+006  0.2743927E+02  0.7546771E-02  0.1628251E+00
         21   -1    0    0  502  501  0.00000000000E+00  0.00000000000E+00  0.13814188154E+02  0.13814188154E+02  0.00000000000E+00 0.  1.
         21   -1    0    0  503  502 -0.00000000000E+00 -0.00000000000E+00 -0.15788244449E+03  0.15788244449E+03  0.00000000000E+00 0.  1.
         21    1    1    2  503  504  0.27431847800E+02 -0.63806428413E+00 -0.14150170586E+03  0.14413759454E+03  0.00000000000E+00 0.  1.
         21    1    1    2  504  501 -0.27431847800E+02  0.63806428413E+00 -0.25665504783E+01  0.27559038102E+02  0.00000000000E+00 0.  1.
<mgrwt>
<rscale>  2 0.27439267E+02</rscale>
<asrwt>0</asrwt>
<pdfrwt beam="1">  1       21 0.21252598E-02 0.27439267E+02</pdfrwt>
<pdfrwt beam="2">  1       21 0.24289606E-01 0.27439267E+02</pdfrwt>
<totfact> 0.14393518E+07</totfact>
</mgrwt>
</event>
<event>
 4    1  0.4353697E+006  0.2047846E+02  0.7546771E-02  0.1735977E+00
         21   -1    0    0  503  501  0.00000000000E+00  0.00000000000E+00  0.33820938672E+02  0.33820938672E+02  0.00000000000E+00 0.  1.
         21   -1    0    0  504  502 -0.00000000000E+00 -0.00000000000E+00 -0.17263819755E+02  0.17263819755E+02  0.00000000000E+00 0.  1.
         21    1    1    2  503  502 -0.14853823320E+02 -0.14097205481E+02  0.21836632408E+02  0.29936696286E+02  0.00000000000E+00 0.  1.
         21    1    1    2  504  501  0.14853823320E+02  0.14097205481E+02 -0.52795134912E+01  0.21148062141E+02  0.00000000000E+00 0.  1.
<mgrwt>
<rscale>  2 0.20478459E+02</rscale>
<asrwt>0</asrwt>
<pdfrwt beam="1">  1       21 0.52032214E-02 0.20478459E+02</pdfrwt>
<pdfrwt beam="2">  1       21 0.26559723E-02 0.20478459E+02</pdfrwt>
<totfact> 0.12550652E+08</totfact>
</mgrwt>
</event>
<event>
 4    1  0.4353697E+006  0.2098161E+02  0.7546771E-02  0.1726484E+00
         21   -1    0    0  504  501  0.00000000000E+00  0.00000000000E+00  0.25324023671E+02  0.25324023671E+02  0.00000000000E+00 0.  1.
         21   -1    0    0  503  502 -0.00000000000E+00 -0.00000000000E+00 -0.17386422064E+02  0.17386422064E+02  0.00000000000E+00 0.  1.
         21    1    1    2  503  501 -0.20298639570E+02  0.53097101910E+01  0.42309985882E+01  0.21403951499E+02  0.00000000000E+00 0.  1.
         21    1    1    2  504  502  0.20298639570E+02 -0.53097101910E+01  0.37066030189E+01  0.21306494237E+02  0.00000000000E+00 0.  1.
<mgrwt>
<rscale>  2 0.20981606E+02</rscale>
<asrwt>0</asrwt>
<pdfrwt beam="1">  1       21 0.38960036E-02 0.20981606E+02</pdfrwt>
<pdfrwt beam="2">  1       21 0.26748342E-02 0.20981606E+02</pdfrwt>
<totfact> 0.19744965E+08</totfact>
</mgrwt>
</event>
<event>
 4    1  0.4353697E+006  0.2971411E+02  0.7546771E-02  0.1601270E+00
         21   -1    0    0  503  501  0.00000000000E+00  0.00000000000E+00  0.16946129426E+03  0.16946129426E+03  0.00000000000E+00 0.  1.
         21   -1    0    0  504  502 -0.00000000000E+00 -0.00000000000E+00 -0.52258668684E+01  0.52258668684E+01  0.00000000000E+00 0.  1.
         21    1    1    2  503  502 -0.26405788602E+02  0.13625802974E+02  0.77336195936E+02  0.82848146511E+02  0.00000000000E+00 0.  1.
         21    1    1    2  504  501  0.26405788602E+02 -0.13625802974E+02  0.86899231456E+02  0.91839014618E+02  0.00000000000E+00 0.  1.
<mgrwt>
<rscale>  2 0.29714107E+02</rscale>
<asrwt>0</asrwt>
<pdfrwt beam="1">  1       21 0.26070964E-01 0.29714107E+02</pdfrwt>
<pdfrwt beam="2">  1       21 0.80397965E-03 0.29714107E+02</pdfrwt>
<totfact> 0.56741788E+07</totfact>
</mgrwt>
</event>
<event>
 4    1  0.4353697E+006  0.3835142E+02  0.7546771E-02  0.1520706E+00
         21   -1    0    0  503  501  0.00000000000E+00  0.00000000000E+00  0.41764969127E+02  0.41764969127E+02  0.00000000000E+00 0.  1.
         21   -1    0    0  504  502 -0.00000000000E+00 -0.00000000000E+00 -0.17172910906E+03  0.17172910906E+03  0.00000000000E+00 0. -1.
         21    1    1    2  503  502 -0.89870902661E+01 -0.37283552473E+02 -0.16015636965E+03  0.16468422455E+03  0.00000000000E+00 0. -1.
         21    1    1    2  504  501  0.89870902661E+01  0.37283552473E+02  0.30192229719E+02  0.48809853635E+02  0.00000000000E+00 0.  1.
<mgrwt>
<rscale>  2 0.38351416E+02</rscale>
<asrwt>0</asrwt>
<pdfrwt beam="1">  1       21 0.64253800E-02 0.38351416E+02</pdfrwt>
<pdfrwt beam="2">  1       21 0.26419862E-01 0.38351416E+02</pdfrwt>
<totfact> 0.22198678E+06</totfact>
</mgrwt>
</event>
<event>
 4    1  0.4353697E+006  0.3705796E+02  0.7546771E-02  0.1531050E+00
         21   -1    0    0  502  501  0.00000000000E+00  0.00000000000E+00  0.36282392177E+01  0.36282392177E+01  0.00000000000E+00 0. -1.
         21   -1    0    0  503  502 -0.00000000000E+00 -0.00000000000E+00 -0.16917480476E+04  0.16917480476E+04  0.00000000000E+00 0. -1.
         21    1    1    2  503  504 -0.82662976176E+01 -0.36124237900E+02 -0.15909238250E+04  0.15913553686E+04  0.00000000000E+00 0. -1.
         21    1    1    2  504  501  0.82662976176E+01  0.36124237900E+02 -0.97195983405E+02  0.10402091823E+03  0.00000000000E+00 0. -1.
<mgrwt>
<rscale>  2 0.37057958E+02</rscale>
<asrwt>0</asrwt>
<pdfrwt beam="1">  1       21 0.55818879E-03 0.37057958E+02</pdfrwt>
<pdfrwt beam="2">  1       21 0.26026980E+00 0.37057958E+02</pdfrwt>
<totfact> 0.61502958E+05</totfact>
</mgrwt>
</event>
<event>
 4    1  0.4353697E+006  0.2106386E+02  0.7546771E-02  0.1724964E+00
         21   -1    0    0  503  501  0.00000000000E+00  0.00000000000E+00  0.50297080151E+03  0.50297080151E+03  0.00000000000E+00 0.  1.
         21   -1    0    0  504  502 -0.00000000000E+00 -0.00000000000E+00 -0.17358116222E+02  0.17358116222E+02  0.00000000000E+00 0.  1.
         21    1    1    2  503  502  0.17778148913E+02  0.11297067736E+02  0.49627389052E+03  0.49672070697E+03  0.00000000000E+00 0.  1.
         21    1    1    2  504  501 -0.17778148913E+02 -0.11297067736E+02 -0.10661205237E+02  0.23608210761E+02  0.00000000000E+00 0.  1.
<mgrwt>
<rscale>  2 0.21063863E+02</rscale>
<asrwt>0</asrwt>
<pdfrwt beam="1">  1       21 0.77380112E-01 0.21063863E+02</pdfrwt>
<pdfrwt beam="2">  1       21 0.26704798E-02 0.21063863E+02</pdfrwt>
<totfact> 0.10564619E+06</totfact>
</mgrwt>
</event>
<event>
 4    1  0.4353697E+006  0.4432758E+02  0.7546771E-02  0.1478584E+00
         21   -1    0    0  503  501  0.00000000000E+00  0.00000000000E+00  0.14156810684E+03  0.14156810684E+03  0.00000000000E+00 0.  1.
         21   -1    0    0  504  502 -0.00000000000E+00 -0.00000000000E+00 -0.13942097163E+02  0.13942097163E+02  0.00000000000E+00 0. -1.
         21    1    1    2  503  502  0.33696729606E+02  0.28800437301E+02  0.69011216819E+02  0.82021233968E+02  0.00000000000E+00 0. -1.
         21    1    1    2  504  501 -0.33696729606E+02 -0.28800437301E+02  0.58614792858E+02  0.73488970034E+02  0.00000000000E+00 0.  1.
<mgrwt>
<rscale>  2 0.44327585E+02</rscale>
<asrwt>0</asrwt>
<pdfrwt beam="1">  1       21 0.21779708E-01 0.44327585E+02</pdfrwt>
<pdfrwt beam="2">  1       21 0.21449381E-02 0.44327585E+02</pdfrwt>
<totfact> 0.18658509E+07</totfact>
</mgrwt>
</event>
<event>
 4    1  0.4353697E+006  0.3408026E+02  0.7546771E-02  0.1556923E+00
         21   -1    0    0  504  501  0.00000000000E+00  0.00000000000E+00  0.14608740102E+03  0.14608740102E+03  0.00000000000E+00 0.  1.
         21   -1    0    0  503  502 -0.00000000000E+00 -0.00000000000E+00 -0.79724827023E+01  0.79724827023E+01  0.00000000000E+00 0.  1.
         21    1    1    2  503  501  0.34071314707E+02 -0.78091282529E+00  0.73104565866E+02  0.80658179134E+02  0.00000000000E+00 0.  1.
         21    1    1    2  504  502 -0.34071314707E+02  0.78091282529E+00  0.65010352453E+02  0.73401704591E+02  0.00000000000E+00 0.  1.
<mgrwt>
<rscale>  2 0.34080263E+02</rscale>
<asrwt>0</asrwt>
<pdfrwt beam="1">  1       21 0.22474983E-01 0.34080263E+02</pdfrwt>
<pdfrwt beam="2">  1       21 0.12265359E-02 0.34080263E+02</pdfrwt>
<totfact> 0.40144908E+07</totfact>
</mgrwt>
</event>
<event>
 4    1  0.4353697E+006  0.2379469E+02  0.7546771E-02  0.1678943E+00
         21   -1    0    0  504  501  0.00000000000E+00  0.00000000000E+00  0.17447421483E+02  0.17447421483E+02  0.00000000000E+00 0. -1.
         21   -1    0    0  501  502 -0.00000000000E+00 -0.00000000000E+00 -0.61309350097E+02  0.61309350097E+02  0.00000000000E+00 0. -1.
         21    1    1    2  503  502  0.23573391661E+02  0.32376761394E+01 -0.48947511386E+02  0.54424683849E+02  0.00000000000E+00 0. -1.
         21    1    1    2  504  503 -0.23573391661E+02 -0.32376761394E+01  0.50855827722E+01  0.24332087731E+02  0.00000000000E+00 0. -1.
<mgrwt>
<rscale>  2 0.23794691E+02</rscale>
<asrwt>0</asrwt>
<pdfrwt beam="1">  1       21 0.26842187E-02 0.23794691E+02</pdfrwt>
<pdfrwt beam="2">  1       21 0.94322076E-02 0.23794691E+02</pdfrwt>
<totfact> 0.49202777E+07</totfact>
</mgrwt>
</event>
<event>
 4    1  0.4353697E+006  0.2136274E+02  0.7546771E-02  0.1719512E+00
         21   -1    0    0  504  501  0.00000000000E+00  0.00000000000E+00  0.10523609339E+02  0.10523609339E+02  0.00000000000E+00 0.  1.
         21   -1    0    0  503  502 -0.00000000000E+00 -0.00000000000E+00 -0.60038453526E+02  0.60038453526E+02  0.00000000000E+00 0.  1.
         21    1    1    2  503  501  0.67130389353E+01  0.20280578014E+02 -0.61654091170E+01  0.22234635277E+02  0.00000000000E+00 0.  1.
         21    1    1    2  504  502 -0.67130389353E+01 -0.20280578014E+02 -0.43349435070E+02  0.48327427588E+02  0.00000000000E+00 0.  1.
<mgrwt>
<rscale>  2 0.21362742E+02</rscale>
<asrwt>0</asrwt>
<pdfrwt beam="1">  1       21 0.16190168E-02 0.21362742E+02</pdfrwt>
<pdfrwt beam="2">  1       21 0.92366851E-02 0.21362742E+02</pdfrwt>
<totfact> 0.10746269E+08</totfact>
</mgrwt>
</event>
<event>
 4    1  0.4353697E+006  0.2016622E+02  0.7546771E-02  0.1742043E+00
         21   -1    0    0  504  501  0.00000000000E+00  0.00000000000E+00  0.18612634756E+01  0.18612634756E+01  0.00000000000E+00 0.  1.
         21   -1    0    0  503  502 -0.00000000000E+00 -0.00000000000E+00 -0.30377940842E+03  0.30377940842E+03  0.00000000000E+00 0.  1.
         21    1    1    2  503  501  0.18755097124E+02  0.74109970848E+01 -0.23193148925E+03  0.23280655543E+03  0.00000000000E+00 0.  1.
         21    1    1    2  504  502 -0.18755097124E+02 -0.74109970848E+01 -0.69986655697E+02  0.72834116467E+02  0.00000000000E+00 0.  1.
<mgrwt>
<rscale>  2 0.20166223E+02</rscale>
<asrwt>0</asrwt>
<pdfrwt beam="1">  1       21 0.28634818E-03 0.20166223E+02</pdfrwt>
<pdfrwt beam="2">  1       21 0.46735301E-01 0.20166223E+02</pdfrwt>
<totfact> 0.80155535E+07</totfact>
</mgrwt>
</event>
<event>
 4    1  0.4353697E+006  0.3147337E+02  0.7546771E-02  0.1582351E+00
         21   -1    0    0  504  501  0.00000000000E+00  0.00000000000E+00  0.20874612839E+03  0.20874612839E+03  0.00000000000E+00 0. -1.
         21   -1    0    0  503  502 -0.00000000000E+00 -0.00000000000E+00 -0.25739811554E+02  0.25739811554E+02  0.00000000000E+00 0.  1.
         21    1    1    2  503  501 -0.31104114344E+02  0.48069817505E+01 -0.14382348938E+02  0.34603828743E+02  0.00000000000E+00 0.  1.
         21    1    1    2  504  502  0.31104114344E+02 -0.48069817505E+01  0.19738866577E+03  0.19988211120E+03  0.00000000000E+00 0. -1.
<mgrwt>
<rscale>  2 0.31473370E+02</rscale>
<asrwt>0</asrwt>
<pdfrwt beam="1">  1       21 0.32114788E-01 0.31473370E+02</pdfrwt>
<pdfrwt beam="2">  1       21 0.39599711E-02 0.31473370E+02</pdfrwt>
<totfact> 0.33230363E+06</totfact>
</mgrwt>
</event>
<event>
 4    1  0.4353697E+006  0.2570890E+02  0.7546771E-02  0.1651024E+00
         21   -1    0    0  503  501  0.00000000000E+00  0.00000000000E+00  0.77595263087E+01  0.77595263087E+01  0.00000000000E+00 0.  1.
         21   -1    0    0  504  502 -0.00000000000E+00 -0.00000000000E+00 -0.38142604834E+03  0.38142604834E+03  0.00000000000E+00 0.  1.
         21    1    1    2  503  502  0.24241447252E+02  0.85615175211E+01 -0.15339348899E+02  0.29937317378E+02  0.00000000000E+00 0.  1.
         21    1    1    2  504  501 -0.24241447252E+02 -0.85615175211E+01 -0.35832717313E+03  0.35924825727E+03  0.00000000000E+00 0.  1.
<mgrwt>
<rscale>  2 0.25708896E+02</rscale>
<asrwt>0</asrwt>
<pdfrwt beam="1">  1       21 0.11937735E-02 0.25708896E+02</pdfrwt>
<pdfrwt beam="2">  1       21 0.58680918E-01 0.25708896E+02</pdfrwt>
<totfact> 0.65216052E+06</totfact>
</mgrwt>
</event>
<event>
 4    1  0.4353697E+006  0.2060157E+02  0.7546771E-02  0.1733623E+00
         21   -1    0    0  503  501  0.00000000000E+00  0.00000000000E+00  0.12184459466E+01  0.12184459466E+01  0.00000000000E+00 0.  1.
         21   -1    0    0  504  502 -0.00000000000E+00 -0.00000000000E+00 -0.35259347980E+03  0.35259347980E+03  0.00000000000E+00 0.  1.
         21    1    1    2  503  502  0.19885567861E+02 -0.53841394098E+01 -0.15624101400E+03  0.15759339841E+03  0.00000000000E+00 0.  1.
         21    1    1    2  504  501 -0.19885567861E+02  0.53841394098E+01 -0.19513401985E+03  0.19621852734E+03  0.00000000000E+00 0.  1.
<mgrwt>
<rscale>  2 0.20601572E+02</rscale>
<asrwt>0</asrwt>
<pdfrwt beam="1">  1       21 0.18745320E-03 0.20601572E+02</pdfrwt>
<pdfrwt beam="2">  1       21 0.54245156E-01 0.20601572E+02</pdfrwt>
<totfact> 0.11133722E+08</totfact>
</mgrwt>
</event>
<event>
 4    1  0.4353697E+006  0.2037653E+02  0.7546771E-02  0.1737942E+00
         21   -1    0    0  503  501  0.00000000000E+00  0.00000000000E+00  0.29551446710E+01  0.29551446710E+01  0.00000000000E+00 0.  1.
         21   -1    0    0  504  502 -0.00000000000E+00 -0.00000000000E+00 -0.16706503351E+03  0.16706503351E+03  0.00000000000E+00 0.  1.
         21    1    1    2  503  502 -0.18361629389E+01  0.20293629998E+02 -0.11595253297E+03  0.11772932012E+03  0.00000000000E+00 0.  1.
         21    1    1    2  504  501  0.18361629389E+01 -0.20293629998E+02 -0.48157355868E+02  0.52290858064E+02  0.00000000000E+00 0.  1.
<mgrwt>
<rscale>  2 0.20376528E+02</rscale>
<asrwt>0</asrwt>
<pdfrwt beam="1">  1       21 0.45463775E-03 0.20376528E+02</pdfrwt>
<pdfrwt beam="2">  1       21 0.25702307E-01 0.20376528E+02</pdfrwt>
<totfact> 0.12330807E+08</totfact>
</mgrwt>
</event>
<event>
 4    1  0.4353697E+006  0.3356374E+02  0.7546771E-02  0.1561738E+00
         21   -1    0    0  502  501  0.00000000000E+00  0.00000000000E+00  0.19176661681E+02  0.19176661681E+02  0.00000000000E+00 0. -1.
         21   -1    0    0  504  502 -0.00000000000E+00 -0.00000000000E+00 -0.22465525557E+03  0.22465525557E+03  0.00000000000E+00 0. -1.
         21    1    1    2  503  501  0.29081937993E+01 -0.33437513047E+02  0.20313044482E+01  0.33625155282E+02  0.00000000000E+00 0. -1.
         21    1    1    2  504  503 -0.29081937993E+01  0.33437513047E+02 -0.20750989834E+03  0.21020676197E+03  0.00000000000E+00 0. -1.
<mgrwt>
<rscale>  2 0.33563743E+02</rscale>
<asrwt>0</asrwt>
<pdfrwt beam="1">  1       21 0.29502557E-02 0.33563743E+02</pdfrwt>
<pdfrwt beam="2">  1       21 0.34562346E-01 0.33563743E+02</pdfrwt>
<totfact> 0.46547213E+06</totfact>
</mgrwt>
</event>
<event>
 4    1  0.4353697E+006  0.3479041E+02  0.7546771E-02  0.1550470E+00
         21   -1    0    0  503  501  0.00000000000E+00  0.00000000000E+00  0.56997305400E+02  0.56997305400E+02  0.00000000000E+00 0. -1.
         21   -1    0    0  504  502 -0.00000000000E+00 -0.00000000000E+00 -0.11549388849E+03  0.11549388849E+03  0.00000000000E+00 0. -1.
         21    1    1    2  503  502  0.11977603503E+02 -0.32663586501E+02 -0.10716259089E+03  0.11266851271E+03  0.00000000000E+00 0. -1.
         21    1    1    2  504  501 -0.11977603503E+02  0.32663586501E+02  0.48666007801E+02  0.59822681185E+02  0.00000000000E+00 0. -1.
<mgrwt>
<rscale>  2 0.34790413E+02</rscale>
<asrwt>0</asrwt>
<pdfrwt beam="1">  1       21 0.87688163E-02 0.34790413E+02</pdfrwt>
<pdfrwt beam="2">  1       21 0.17768290E-01 0.34790413E+02</pdfrwt>
<totfact> 0.26768534E+06</totfact>
</mgrwt>
</event>
<event>
 4    1  0.4353697E+006  0.2083060E+02  0.7546771E-02  0.1729298E+00
         21   -1    0    0  503  501  0.00000000000E+00  0.00000000000E+00  0.31571348337E+02  0.31571348337E+02  0.00000000000E+00 0.  1.
         21   -1    0    0  504  502 -0.00000000000E+00 -0.00000000000E+00 -0.28295435997E+02  0.28295435997E+02  0.00000000000E+00 0. -1.
         21    1    1    2  503  502  0.16422940953E+02  0.12814087509E+02 -0.19828086225E+02  0.28758769646E+02  0.00000000000E+00 0. -1.
         21    1    1    2  504  501 -0.16422940953E+02 -0.12814087509E+02  0.23103998565E+02  0.31108014689E+02  0.00000000000E+00 0.  1.
<mgrwt>
<rscale>  2 0.20830598E+02</rscale>
<asrwt>0</asrwt>
<pdfrwt beam="1">  1       21 0.48571305E-02 0.20830598E+02</pdfrwt>
<pdfrwt beam="2">  1       21 0.43531440E-02 0.20830598E+02</pdfrwt>
<totfact> 0.65125404E+07</totfact>
</mgrwt>
</event>
<event>
 4    1  0.4353697E+006  0.2661114E+02  0.7546771E-02  0.1638884E+00
         21   -1    0    0  504  501  0.00000000000E+00  0.00000000000E+00  0.16502034636E+03  0.16502034636E+03  0.00000000000E+00 0.  1.
         21   -1    0    0  503  502 -0.00000000000E+00 -0.00000000000E+00 -0.54328799043E+01  0.54328799043E+01  0.00000000000E+00 0.  1.
         21    1    1    2  503  501 -0.19355185500E+02 -0.18262796099E+02  0.40726554421E+02  0.48649821809E+02  0.00000000000E+00 0.  1.
         21    1    1    2  504  502  0.19355185500E+02  0.18262796099E+02  0.11886091204E+03  0.12180340446E+03  0.00000000000E+00 0.  1.
<mgrwt>
<rscale>  2 0.26611143E+02</rscale>
<asrwt>0</asrwt>
<pdfrwt beam="1">  1       21 0.25387742E-01 0.26611143E+02</pdfrwt>
<pdfrwt beam="2">  1       21 0.83582780E-03 0.26611143E+02</pdfrwt>
<totfact> 0.54766758E+07</totfact>
</mgrwt>
</event>
<event>
 4    1  0.4353697E+006  0.2272739E+02  0.7546771E-02  0.1695968E+00
         21   -1    0    0  503  501  0.00000000000E+00  0.00000000000E+00  0.12649266904E+02  0.12649266904E+02  0.00000000000E+00 0.  1.
         21   -1    0    0  504  502 -0.00000000000E+00 -0.00000000000E+00 -0.93529902669E+02  0.93529902669E+02  0.00000000000E+00 0. -1.
         21    1    1    2  503  502 -0.18216379441E+02  0.13590354452E+02 -0.59127132382E+00  0.22735078972E+02  0.00000000000E+00 0.  1.
         21    1    1    2  504  501  0.18216379441E+02 -0.13590354452E+02 -0.80289364441E+02  0.83444090602E+02  0.00000000000E+00 0. -1.
<mgrwt>
<rscale>  2 0.22727389E+02</rscale>
<asrwt>0</asrwt>
<pdfrwt beam="1">  1       21 0.19460411E-02 0.22727389E+02</pdfrwt>
<pdfrwt beam="2">  1       21 0.14389215E-01 0.22727389E+02</pdfrwt>
<totfact> 0.39410106E+07</totfact>
</mgrwt>
</event>
<event>
 4    1  0.4353697E+006  0.2123896E+02  0.7546771E-02  0.1721756E+00
         21   -1    0    0  504  501  0.00000000000E+00  0.00000000000E+00  0.34662207211E+01  0.34662207211E+01  0.00000000000E+00 0. -1.
         21   -1    0    0  503  502 -0.00000000000E+00 -0.00000000000E+00 -0.25584287523E+03  0.25584287523E+03  0.00000000000E+00 0. -1.
         21    1    1    2  503  501 -0.12665692413E+02 -0.17049152004E+02 -0.21706951718E+03  0.21810609491E+03  0.00000000000E+00 0. -1.
         21    1    1    2  504  502  0.12665692413E+02  0.17049152004E+02 -0.35307137326E+02  0.41203001038E+02  0.00000000000E+00 0. -1.
<mgrwt>
<rscale>  2 0.21238958E+02</rscale>
<asrwt>0</asrwt>
<pdfrwt beam="1">  1       21 0.53326457E-03 0.21238958E+02</pdfrwt>
<pdfrwt beam="2">  1       21 0.39360454E-01 0.21238958E+02</pdfrwt>
<totfact> 0.45331260E+07</totfact>
</mgrwt>
</event>
<event>
 4    1  0.4353697E+006  0.3306871E+02  0.7546771E-02  0.1566452E+00
         21   -1    0    0  504  501  0.00000000000E+00  0.00000000000E+00  0.40930532527E+02  0.40930532527E+02  0.00000000000E+00 0. -1.
         21   -1    0    0  503  502 -0.00000000000E+00 -0.00000000000E+00 -0.11562893562E+03  0.11562893562E+03  0.00000000000E+00 0. -1.
         21    1    1    2  503  501  0.15507853155E+02 -0.29206957548E+02 -0.10599218945E+03  0.11103100515E+03  0.00000000000E+00 0. -1.
         21    1    1    2  504  502 -0.15507853155E+02  0.29206957548E+02  0.31293786358E+02  0.45528463002E+02  0.00000000000E+00 0. -1.
<mgrwt>
<rscale>  2 0.33068715E+02</rscale>
<asrwt>0</asrwt>
<pdfrwt beam="1">  1       21 0.62970050E-02 0.33068715E+02</pdfrwt>
<pdfrwt beam="2">  1       21 0.17789067E-01 0.33068715E+02</pdfrwt>
<totfact> 0.45855605E+06</totfact>
</mgrwt>
</event>
<event>
 4    1  0.4353697E+006  0.2255139E+02  0.7546771E-02  0.1698887E+00
         21   -1    0    0  503  501  0.00000000000E+00  0.00000000000E+00  0.20907986012E+03  0.20907986012E+03  0.00000000000E+00 0.  1.
         21   -1    0    0  504  502 -0.00000000000E+00 -0.00000000000E+00 -0.95065888972E+02  0.95065888972E+02  0.00000000000E+00 0. -1.
         21    1    1    2  503  502  0.16055995991E+02 -0.15835727266E+02 -0.93107781197E+02  0.95799917457E+02  0.00000000000E+00 0. -1.
         21    1    1    2  504  501 -0.16055995991E+02  0.15835727266E+02  0.20712175235E+03  0.20834583164E+03  0.00000000000E+00 0.  1.
<mgrwt>
<rscale>  2 0.22551392E+02</rscale>
<asrwt>0</asrwt>
<pdfrwt beam="1">  1       21 0.32166132E-01 0.22551392E+02</pdfrwt>
<pdfrwt beam="2">  1       21 0.14625521E-01 0.22551392E+02</pdfrwt>
<totfact> 0.37791417E+05</totfact>
</mgrwt>
</event>
<event>
 4    1  0.4353697E+006  0.2037487E+02  0.7546771E-02  0.1737974E+00
         21   -1    0    0  503  501  0.00000000000E+00  0.00000000000E+00  0.28136795130E+02  0.28136795130E+02  0.00000000000E+00 0. -1.
         21   -1    0    0  504  502 -0.00000000000E+00 -0.00000000000E+00 -0.13878422162E+03  0.13878422162E+03  0.00000000000E+00 0. -1.
         21    1    1    2  503  502  0.14768490662E+02 -0.14036634561E+02  0.23575817113E+02  0.31160144075E+02  0.00000000000E+00 0. -1.
         21    1    1    2  504  501 -0.14768490662E+02  0.14036634561E+02 -0.13422324360E+03  0.13576087268E+03  0.00000000000E+00 0. -1.
<mgrwt>
<rscale>  2 0.20374872E+02</rscale>
<asrwt>0</asrwt>
<pdfrwt beam="1">  1       21 0.43287377E-02 0.20374872E+02</pdfrwt>
<pdfrwt beam="2">  1       21 0.21351419E-01 0.20374872E+02</pdfrwt>
<totfact> 0.56492732E+06</totfact>
</mgrwt>
</event>
<event>
 4    1  0.4353697E+006  0.2261155E+02  0.7546771E-02  0.1697885E+00
         21   -1    0    0  503  501  0.00000000000E+00  0.00000000000E+00  0.44540553382E+03  0.44540553382E+03  0.00000000000E+00 0.  1.
         21   -1    0    0  504  502 -0.00000000000E+00 -0.00000000000E+00 -0.24623892752E+02  0.24623892752E+02  0.00000000000E+00 0. -1.
         21    1    1    2  503  502  0.36689469255E+01  0.22311907998E+02  0.43986226602E+03  0.44044306723E+03  0.00000000000E+00 0.  1.
         21    1    1    2  504  501 -0.36689469255E+01 -0.22311907998E+02 -0.19080624952E+02  0.29586359333E+02  0.00000000000E+00 0. -1.
<mgrwt>
<rscale>  2 0.22611555E+02</rscale>
<asrwt>0</asrwt>
<pdfrwt beam="1">  1       21 0.68523922E-01 0.22611555E+02</pdfrwt>
<pdfrwt beam="2">  1       21 0.37882915E-02 0.22611555E+02</pdfrwt>
<totfact> 0.79198806E+05</totfact>
</mgrwt>
</event>
<event>
 4    1  0.4353697E+006  0.3843709E+02  0.7546771E-02  0.1520038E+00
         21   -1    0    0  504  501  0.00000000000E+00  0.00000000000E+00  0.29982484515E+02  0.29982484515E+02  0.00000000000E+00 0. -1.
         21   -1    0    0  503  502 -0.00000000000E+00 -0.00000000000E+00 -0.58140163938E+02  0.58140163938E+02  0.00000000000E+00 0. -1.
         21    1    1    2  503  501  0.48761479789E+01 -0.38126543186E+02  0.31257317239E+01  0.38563976886E+02  0.00000000000E+00 0. -1.
         21    1    1    2  504  502 -0.48761479789E+01  0.38126543186E+02 -0.31283411147E+02  0.49558671567E+02  0.00000000000E+00 0. -1.
<mgrwt>
<rscale>  2 0.38437093E+02</rscale>
<asrwt>0</asrwt>
<pdfrwt beam="1">  1       21 0.46126899E-02 0.38437093E+02</pdfrwt>
<pdfrwt beam="2">  1       21 0.89446406E-02 0.38437093E+02</pdfrwt>
<totfact> 0.25207390E+07</totfact>
</mgrwt>
</event>
<event>
 4    1  0.4353697E+006  0.2108916E+02  0.7546771E-02  0.1724498E+00
         21   -1    0    0  504  501  0.00000000000E+00  0.00000000000E+00  0.33323823653E+03  0.33323823653E+03  0.00000000000E+00 0.  1.
         21   -1    0    0  501  502 -0.00000000000E+00 -0.00000000000E+00 -0.70538514152E+01  0.70538514152E+01  0.00000000000E+00 0. -1.
         21    1    1    2  503  502  0.20350455755E+02 -0.55327583756E+01  0.98858137241E+01  0.23291238217E+02  0.00000000000E+00 0. -1.
         21    1    1    2  504  503 -0.20350455755E+02  0.55327583756E+01  0.31629857139E+03  0.31700084973E+03  0.00000000000E+00 0.  1.
<mgrwt>
<rscale>  2 0.21089155E+02</rscale>
<asrwt>0</asrwt>
<pdfrwt beam="1">  1       21 0.51267409E-01 0.21089155E+02</pdfrwt>
<pdfrwt beam="2">  1       21 0.10852082E-02 0.21089155E+02</pdfrwt>
<totfact> 0.95072964E+06</totfact>
</mgrwt>
</event>
<event>
 4    1  0.4353697E+006  0.2518731E+02  0.7546771E-02  0.1658326E+00
         21   -1    0    0  502  501  0.00000000000E+00  0.00000000000E+00  0.46371464000E+01  0.46371464000E+01  0.00000000000E+00 0.  1.
         21   -1    0    0  504  502 -0.00000000000E+00 -0.00000000000E+00 -0.61082564270E+03  0.61082564270E+03  0.00000000000E+00 0.  1.
         21    1    1    2  503  501  0.24803998637E+02 -0.43774497586E+01 -0.32006268581E+02  0.40728388665E+02  0.00000000000E+00 0.  1.
         21    1    1    2  504  503 -0.24803998637E+02  0.43774497586E+01 -0.57418222772E+03  0.57473440043E+03  0.00000000000E+00 0.  1.
<mgrwt>
<rscale>  2 0.25187307E+02</rscale>
<asrwt>0</asrwt>
<pdfrwt beam="1">  1       21 0.71340722E-03 0.25187307E+02</pdfrwt>
<pdfrwt beam="2">  1       21 0.93973165E-01 0.25187307E+02</pdfrwt>
<totfact> 0.52925523E+06</totfact>
</mgrwt>
</event>
<event>
 4    1  0.4353697E+006  0.2365276E+02  0.7546771E-02  0.1681142E+00
         21   -1    0    0  504  501  0.00000000000E+00  0.00000000000E+00  0.76735338461E+02  0.76735338461E+02  0.00000000000E+00 0. -1.
         21   -1    0    0  503  502 -0.00000000000E+00 -0.00000000000E+00 -0.27299407839E+02  0.27299407839E+02  0.00000000000E+00 0.  1.
         21    1    1    2  503  501 -0.14451078287E+02  0.18724839020E+02  0.69250916477E+02  0.73178840473E+02  0.00000000000E+00 0. -1.
         21    1    1    2  504  502  0.14451078287E+02 -0.18724839020E+02 -0.19814985855E+02  0.30855905827E+02  0.00000000000E+00 0.  1.
<mgrwt>
<rscale>  2 0.23652764E+02</rscale>
<asrwt>0</asrwt>
<pdfrwt beam="1">  1       21 0.11805437E-01 0.23652764E+02</pdfrwt>
<pdfrwt beam="2">  1       21 0.41999089E-02 0.23652764E+02</pdfrwt>
<totfact> 0.16781637E+07</totfact>
</mgrwt>
</event>
<event>
 4    1  0.4353697E+006  0.2639951E+02  0.7546771E-02  0.1641677E+00
         21   -1    0    0  502  501  0.00000000000E+00  0.00000000000E+00  0.14849830400E+02  0.14849830400E+02  0.00000000000E+00 0.  1.
         21   -1    0    0  503  502 -0.00000000000E+00 -0.00000000000E+00 -0.61528934602E+02  0.61528934602E+02  0.00000000000E+00 0.  1.
         21    1    1    2  503  504  0.26103179718E+02  0.39444064396E+01 -0.41940354226E+02  0.49557316777E+02  0.00000000000E+00 0.  1.
         21    1    1    2  504  501 -0.26103179718E+02 -0.39444064396E+01 -0.47387499763E+01  0.26821448225E+02  0.00000000000E+00 0.  1.
<mgrwt>
<rscale>  2 0.26399514E+02</rscale>
<asrwt>0</asrwt>
<pdfrwt beam="1">  1       21 0.22845893E-02 0.26399514E+02</pdfrwt>
<pdfrwt beam="2">  1       21 0.94659899E-02 0.26399514E+02</pdfrwt>
<totfact> 0.64437190E+07</totfact>
</mgrwt>
</event>
<event>
 4    1  0.4353697E+006  0.2451264E+02  0.7546771E-02  0.1668102E+00
         21   -1    0    0  503  501  0.00000000000E+00  0.00000000000E+00  0.29928368813E+02  0.29928368813E+02  0.00000000000E+00 0. -1.
         21   -1    0    0  504  502 -0.00000000000E+00 -0.00000000000E+00 -0.20545743425E+02  0.20545743425E+02  0.00000000000E+00 0. -1.
         21    1    1    2  503  502 -0.14778771754E+02  0.19556519620E+02  0.87906547857E+00  0.24528398038E+02  0.00000000000E+00 0. -1.
         21    1    1    2  504  501  0.14778771754E+02 -0.19556519620E+02  0.85035599095E+01  0.25945714200E+02  0.00000000000E+00 0. -1.
<mgrwt>
<rscale>  2 0.24512641E+02</rscale>
<asrwt>0</asrwt>
<pdfrwt beam="1">  1       21 0.46043645E-02 0.24512641E+02</pdfrwt>
<pdfrwt beam="2">  1       21 0.31608836E-02 0.24512641E+02</pdfrwt>
<totfact> 0.12271327E+08</totfact>
</mgrwt>
</event>
<event>
 4    1  0.4353697E+006  0.2182931E+02  0.7546771E-02  0.1711221E+00
         21   -1    0    0  503  501  0.00000000000E+00  0.00000000000E+00  0.89859287422E+01  0.89859287422E+01  0.00000000000E+00 0. -1.
         21   -1    0    0  504  502 -0.00000000000E+00 -0.00000000000E+00 -0.55089950346E+02  0.55089950346E+02  0.00000000000E+00 0. -1.
         21    1    1    2  503  502 -0.10546882565E+02  0.19112350451E+02 -0.29248089569E+02  0.36496156168E+02  0.00000000000E+00 0. -1.
         21    1    1    2  504  501  0.10546882565E+02 -0.19112350451E+02 -0.16855932035E+02  0.27579722920E+02  0.00000000000E+00 0. -1.
<mgrwt>
<rscale>  2 0.21829308E+02</rscale>
<asrwt>0</asrwt>
<pdfrwt beam="1">  1       21 0.13824505E-02 0.21829308E+02</pdfrwt>
<pdfrwt beam="2">  1       21 0.84753772E-02 0.21829308E+02</pdfrwt>
<totfact> 0.15821951E+08</totfact>
</mgrwt>
</event>
<event>
 4    1  0.4353697E+006  0.2597389E+02  0.7546771E-02  0.1647395E+00
         21   -1    0    0  504  501  0.00000000000E+00  0.00000000000E+00  0.10321313360E+02  0.10321313360E+02  0.00000000000E+00 0. -1.
         21   -1    0    0  503  502 -0.00000000000E+00 -0.00000000000E+00 -0.66267805068E+02  0.66267805068E+02  0.00000000000E+00 0. -1.
         21    1    1    2  503  501 -0.11464729556E+02 -0.23306716772E+02 -0.32445287603E+02  0.41561277147E+02  0.00000000000E+00 0. -1.
         21    1    1    2  504  502  0.11464729556E+02  0.23306716772E+02 -0.23501204104E+02  0.35027841281E+02  0.00000000000E+00 0. -1.
<mgrwt>
<rscale>  2 0.25973892E+02</rscale>
<asrwt>0</asrwt>
<pdfrwt beam="1">  1       21 0.15878944E-02 0.25973892E+02</pdfrwt>
<pdfrwt beam="2">  1       21 0.10195047E-01 0.25973892E+02</pdfrwt>
<totfact> 0.99310206E+07</totfact>
</mgrwt>
</event>
<event>
 4    1  0.4353697E+006  0.2314881E+02  0.7546771E-02  0.1689109E+00
         21   -1    0    0  502  501  0.00000000000E+00  0.00000000000E+00  0.96290670014E+02  0.96290670014E+02  0.00000000000E+00 0. -1.
         21   -1    0    0  504  502 -0.00000000000E+00 -0.00000000000E+00 -0.16113249012E+03  0.16113249012E+03  0.00000000000E+00 0.  1.
         21    1    1    2  503  501 -0.13724095866E+02 -0.18641793984E+02  0.94048456737E+02  0.96855456764E+02  0.00000000000E+00 0. -1.
         21    1    1    2  504  503  0.13724095866E+02  0.18641793984E+02 -0.15889027684E+03  0.16056770337E+03  0.00000000000E+00 0.  1.
<mgrwt>
<rscale>  2 0.23148808E+02</rscale>
<asrwt>0</asrwt>
<pdfrwt beam="1">  1       21 0.14813949E-01 0.23148808E+02</pdfrwt>
<pdfrwt beam="2">  1       21 0.24789614E-01 0.23148808E+02</pdfrwt>
<totfact> 0.59298191E+05</totfact>
</mgrwt>
</event>
<event>
 4    1  0.4353697E+006  0.2090223E+02  0.7546771E-02  0.1727959E+00
         21   -1    0    0  504  501  0.00000000000E+00  0.00000000000E+00  0.17134963288E+01  0.17134963288E+01  0.00000000000E+00 0. -1.
         21   -1    0    0  503  502 -0.00000000000E+00 -0.00000000000E+00 -0.29939330224E+03  0.29939330224E+03  0.00000000000E+00 0.  1.
         21    1    1    2  503  501  0.18244126743E+02 -0.10200735560E+02 -0.20682786349E+03  0.20788138032E+03  0.00000000000E+00 0.  1.
         21    1    1    2  504  502 -0.18244126743E+02  0.10200735560E+02 -0.90851942420E+02  0.93225418251E+02  0.00000000000E+00 0. -1.
<mgrwt>
<rscale>  2 0.20902229E+02</rscale>
<asrwt>0</asrwt>
<pdfrwt beam="1">  1       21 0.26361499E-03 0.20902229E+02</pdfrwt>
<pdfrwt beam="2">  1       21 0.46060479E-01 0.20902229E+02</pdfrwt>
<totfact> 0.93804951E+07</totfact>
</mgrwt>
</event>
<event>
 4    1  0.4353697E+006  0.2200084E+02  0.7546771E-02  0.1708237E+00
         21   -1    0    0  504  501  0.00000000000E+00  0.00000000000E+00  0.48173081840E+03  0.48173081840E+03  0.00000000000E+00 0.  1.
         21   -1    0    0  501  502 -0.00000000000E+00 -0.00000000000E+00 -0.20226638052E+02  0.20226638052E+02  0.00000000000E+00 0. -1.
         21    1    1    2  503  502 -0.13108421459E+02 -0.17669363757E+02 -0.13913368186E+02  0.26031114901E+02  0.00000000000E+00 0. -1.
         21    1    1    2  504  503  0.13108421459E+02  0.17669363757E+02  0.47541754853E+03  0.47592634155E+03  0.00000000000E+00 0.  1.
<mgrwt>
<rscale>  2 0.22000844E+02</rscale>
<asrwt>0</asrwt>
<pdfrwt beam="1">  1       21 0.74112425E-01 0.22000844E+02</pdfrwt>
<pdfrwt beam="2">  1       21 0.31117908E-02 0.22000844E+02</pdfrwt>
<totfact> 0.91493485E+05</totfact>
</mgrwt>
</event>
<event>
 4    1  0.4353697E+006  0.2204875E+02  0.7546771E-02  0.1707410E+00
         21   -1    0    0  504  501  0.00000000000E+00  0.00000000000E+00  0.13722570716E+02  0.13722570716E+02  0.00000000000E+00 0.  1.
         21   -1    0    0  503  502 -0.00000000000E+00 -0.00000000000E+00 -0.11458432372E+03  0.11458432372E+03  0.00000000000E+00 0.  1.
         21    1    1    2  503  501  0.11924852752E+02 -0.18545755934E+02  0.28907530157E+01  0.22237437562E+02  0.00000000000E+00 0.  1.
         21    1    1    2  504  502 -0.11924852752E+02  0.18545755934E+02 -0.10375250602E+03  0.10606945688E+03  0.00000000000E+00 0.  1.
<mgrwt>
<rscale>  2 0.22048745E+02</rscale>
<asrwt>0</asrwt>
<pdfrwt beam="1">  1       21 0.21111647E-02 0.22048745E+02</pdfrwt>
<pdfrwt beam="2">  1       21 0.17628357E-01 0.22048745E+02</pdfrwt>
<totfact> 0.24408887E+07</totfact>
</mgrwt>
</event>
<event>
 4    1  0.4353697E+006  0.3116024E+02  0.7546771E-02  0.1585607E+00
         21   -1    0    0  502  501  0.00000000000E+00  0.00000000000E+00  0.35841442649E+01  0.35841442649E+01  0.00000000000E+00 0. -1.
         21   -1    0    0  504  502 -0.00000000000E+00 -0.00000000000E+00 -0.27163867747E+03  0.27163867747E+03  0.00000000000E+00 0. -1.
         21    1    1    2  503  501  0.30760521519E+02 -0.49749935869E+01 -0.12687233042E+03  0.13064282786E+03  0.00000000000E+00 0. -1.
         21    1    1    2  504  503 -0.30760521519E+02  0.49749935869E+01 -0.14118220278E+03  0.14457999387E+03  0.00000000000E+00 0. -1.
<mgrwt>
<rscale>  2 0.31160235E+02</rscale>
<asrwt>0</asrwt>
<pdfrwt beam="1">  1       21 0.55140697E-03 0.31160235E+02</pdfrwt>
<pdfrwt beam="2">  1       21 0.41790553E-01 0.31160235E+02</pdfrwt>
<totfact> 0.41886044E+07</totfact>
</mgrwt>
</event>
<event>
 4    1  0.4353697E+006  0.2182231E+02  0.7546771E-02  0.1711343E+00
         21   -1    0    0  504  501  0.00000000000E+00  0.00000000000E+00  0.39257881296E+03  0.39257881296E+03  0.00000000000E+00 0. -1.
         21   -1    0    0  503  502 -0.00000000000E+00 -0.00000000000E+00 -0.17118500890E+02  0.17118500890E+02  0.00000000000E+00 0.  1.
         21    1    1    2  503  501  0.41117037741E+01 -0.21431454424E+02  0.38518755001E+03  0.38580521255E+03  0.00000000000E+00 0. -1.
         21    1    1    2  504  502 -0.41117037741E+01  0.21431454424E+02 -0.97272379399E+01  0.23892101302E+02  0.00000000000E+00 0.  1.
<mgrwt>
<rscale>  2 0.21822313E+02</rscale>
<asrwt>0</asrwt>
<pdfrwt beam="1">  1       21 0.60396734E-01 0.21822313E+02</pdfrwt>
<pdfrwt beam="2">  1       21 0.26336158E-02 0.21822313E+02</pdfrwt>
<totfact> 0.17944541E+06</totfact>
</mgrwt>
</event>
<event>
 4    1  0.4353697E+006  0.2079946E+02  0.7546771E-02  0.1729882E+00
         21   -1    0    0  504  501  0.00000000000E+00  0.00000000000E+00  0.13065217756E+03  0.13065217756E+03  0.00000000000E+00 0.  1.
         21   -1    0    0  503  502 -0.00000000000E+00 -0.00000000000E+00 -0.17113855695E+03  0.17113855695E+03  0.00000000000E+00 0. -1.
         21    1    1    2  503  501  0.58936533392E+01 -0.19946993916E+02 -0.16967165259E+03  0.17094176613E+03  0.00000000000E+00 0. -1.
         21    1    1    2  504  502 -0.58936533392E+01  0.19946993916E+02  0.12918527319E+03  0.13084896838E+03  0.00000000000E+00 0.  1.
<mgrwt>
<rscale>  2 0.20799464E+02</rscale>
<asrwt>0</asrwt>
<pdfrwt beam="1">  1       21 0.20100335E-01 0.20799464E+02</pdfrwt>
<pdfrwt beam="2">  1       21 0.26329009E-01 0.20799464E+02</pdfrwt>
<totfact> 0.31309686E+05</totfact>
</mgrwt>
</event>
<event>
 4    1  0.4353697E+006  0.2184775E+02  0.7546771E-02  0.1710898E+00
         21   -1    0    0  504  501  0.00000000000E+00  0.00000000000E+00  0.15552763143E+03  0.15552763143E+03  0.00000000000E+00 0.  1.
         21   -1    0    0  503  502 -0.00000000000E+00 -0.00000000000E+00 -0.40894368444E+01  0.40894368444E+01  0.00000000000E+00 0. -1.
         21    1    1    2  503  501 -0.15877851407E+02  0.15007272482E+02  0.35853631899E+02  0.41985798944E+02  0.00000000000E+00 0. -1.
         21    1    1    2  504  502  0.15877851407E+02 -0.15007272482E+02  0.11558456269E+03  0.11763126933E+03  0.00000000000E+00 0.  1.
<mgrwt>
<rscale>  2 0.21847755E+02</rscale>
<asrwt>0</asrwt>
<pdfrwt beam="1">  1       21 0.23927323E-01 0.21847755E+02</pdfrwt>
<pdfrwt beam="2">  1       21 0.62914425E-03 0.21847755E+02</pdfrwt>
<totfact> 0.88479247E+07</totfact>
</mgrwt>
</event>
<event>
 4    1  0.4353697E+006  0.2570426E+02  0.7546771E-02  0.1651088E+00
         21   -1    0    0  503  501  0.00000000000E+00  0.00000000000E+00  0.21412564426E+02  0.21412564426E+02  0.00000000000E+00 0. -1.
         21   -1    0    0  501  502 -0.00000000000E+00 -0.00000000000E+00 -0.60910647088E+02  0.60910647088E+02  0.00000000000E+00 0.  1.
         21    1    1    2  503  504  0.13495115401E+02 -0.21876724625E+02  0.91644450252E+01  0.27289123706E+02  0.00000000000E+00 0. -1.
         21    1    1    2  504  502 -0.13495115401E+02  0.21876724625E+02 -0.48662527687E+02  0.55034087809E+02  0.00000000000E+00 0.  1.
<mgrwt>
<rscale>  2 0.25704265E+02</rscale>
<asrwt>0</asrwt>
<pdfrwt beam="1">  1       21 0.32942407E-02 0.25704265E+02</pdfrwt>
<pdfrwt beam="2">  1       21 0.93708689E-02 0.25704265E+02</pdfrwt>
<totfact> 0.36798877E+07</totfact>
</mgrwt>
</event>
<event>
 4    1  0.4353697E+006  0.2082630E+02  0.7546771E-02  0.1729378E+00
         21   -1    0    0  504  501  0.00000000000E+00  0.00000000000E+00  0.10102642916E+04  0.10102642916E+04  0.00000000000E+00 0.  1.
         21   -1    0    0  501  502 -0.00000000000E+00 -0.00000000000E+00 -0.13139618344E+01  0.13139618344E+01  0.00000000000E+00 0.  1.
         21    1    1    2  503  502  0.44682519678E+01  0.20341320807E+02  0.89463866468E+02  0.91855963395E+02  0.00000000000E+00 0.  1.
         21    1    1    2  504  503 -0.44682519678E+01 -0.20341320807E+02  0.91948646325E+03  0.91972229000E+03  0.00000000000E+00 0.  1.
<mgrwt>
<rscale>  2 0.20826296E+02</rscale>
<asrwt>0</asrwt>
<pdfrwt beam="1">  1       21 0.15542465E+00 0.20826296E+02</pdfrwt>
<pdfrwt beam="2">  1       21 0.20214878E-03 0.20826296E+02</pdfrwt>
<totfact> 0.10427119E+07</totfact>
</mgrwt>
</event>
<event>
 4    1  0.4353697E+006  0.2085854E+02  0.7546771E-02  0.1728775E+00
         21   -1    0    0  504  501  0.00000000000E+00  0.00000000000E+00  0.33885230431E+03  0.33885230431E+03  0.00000000000E+00 0.  1.
         21   -1    0    0  503  502 -0.00000000000E+00 -0.00000000000E+00 -0.21329731545E+01  0.21329731545E+01  0.00000000000E+00 0.  1.
         21    1    1    2  503  501 -0.18811861883E+02 -0.90106843503E+01  0.60795951877E+02  0.64274616643E+02  0.00000000000E+00 0.  1.
         21    1    1    2  504  502  0.18811861883E+02  0.90106843503E+01  0.27592337928E+03  0.27671066082E+03  0.00000000000E+00 0.  1.
<mgrwt>
<rscale>  2 0.20858537E+02</rscale>
<asrwt>0</asrwt>
<pdfrwt beam="1">  1       21 0.52131081E-01 0.20858537E+02</pdfrwt>
<pdfrwt beam="2">  1       21 0.32814998E-03 0.20858537E+02</pdfrwt>
<totfact> 0.53724654E+07</totfact>
</mgrwt>
</event>
<event>
 4    1  0.4353697E+006  0.2291198E+02  0.7546771E-02  0.1692941E+00
         21   -1    0    0  503  501  0.00000000000E+00  0.00000000000E+00  0.12773781369E+02  0.12773781369E+02  0.00000000000E+00 0.  1.
         21   -1    0    0  504  502 -0.00000000000E+00 -0.00000000000E+00 -0.41535417125E+02  0.41535417125E+02  0.00000000000E+00 0.  1.
         21    1    1    2  503  502 -0.12298431648E+02  0.19331508342E+02 -0.17172007624E+02  0.28632786829E+02  0.00000000000E+00 0.  1.
         21    1    1    2  504  501  0.12298431648E+02 -0.19331508342E+02 -0.11589628131E+02  0.25676411665E+02  0.00000000000E+00 0.  1.
<mgrwt>
<rscale>  2 0.22911976E+02</rscale>
<asrwt>0</asrwt>
<pdfrwt beam="1">  1       21 0.19651971E-02 0.22911976E+02</pdfrwt>
<pdfrwt beam="2">  1       21 0.63900643E-02 0.22911976E+02</pdfrwt>
<totfact> 0.14858558E+08</totfact>
</mgrwt>
</event>
<event>
 4    1  0.4353697E+006  0.2258649E+02  0.7546771E-02  0.1698302E+00
         21   -1    0    0  503  501  0.00000000000E+00  0.00000000000E+00  0.76659261757E+00  0.76659261757E+00  0.00000000000E+00 0.  1.
         21   -1    0    0  501  502 -0.00000000000E+00 -0.00000000000E+00 -0.67324824827E+03  0.67324824827E+03  0.00000000000E+00 0.  1.
         21    1    1    2  503  504  0.19137406794E+02 -0.11996206501E+02 -0.30003208049E+03  0.30088103734E+03  0.00000000000E+00 0.  1.
         21    1    1    2  504  502 -0.19137406794E+02  0.11996206501E+02 -0.37244957517E+03  0.37313380355E+03  0.00000000000E+00 0.  1.
<mgrwt>
<rscale>  2 0.22586485E+02</rscale>
<asrwt>0</asrwt>
<pdfrwt beam="1">  1       21 0.11793739E-03 0.22586485E+02</pdfrwt>
<pdfrwt beam="2">  1       21 0.10357659E+00 0.22586485E+02</pdfrwt>
<totfact> 0.57920179E+07</totfact>
</mgrwt>
</event>
<event>
 4    1  0.4353697E+006  0.2007677E+02  0.7546771E-02  0.1743806E+00
         21   -1    0    0  504  501  0.00000000000E+00  0.00000000000E+00  0.11759302492E+02  0.11759302492E+02  0.00000000000E+00 0.  1.
         21   -1    0    0  503  502 -0.00000000000E+00 -0.00000000000E+00 -0.33881623237E+03  0.33881623237E+03  0.00000000000E+00 0. -1.
         21    1    1    2  503  501  0.71987874846E+01 -0.18741774637E+02  0.26561996431E+01  0.20251717318E+02  0.00000000000E+00 0.  1.
         21    1    1    2  504  502 -0.71987874846E+01  0.18741774637E+02 -0.32971312952E+03  0.33032381754E+03  0.00000000000E+00 0. -1.
<mgrwt>
<rscale>  2 0.20076769E+02</rscale>
<asrwt>0</asrwt>
<pdfrwt beam="1">  1       21 0.18091234E-02 0.20076769E+02</pdfrwt>
<pdfrwt beam="2">  1       21 0.52125577E-01 0.20076769E+02</pdfrwt>
<totfact> 0.42175560E+06</totfact>
</mgrwt>
</event>
<event>
 4    1  0.4353697E+006  0.2772787E+02  0.7546771E-02  0.1624653E+00
         21   -1    0    0  503  501  0.00000000000E+00  0.00000000000E+00  0.24451032528E+02  0.24451032528E+02  0.00000000000E+00 0. -1.
         21   -1    0    0  504  502 -0.00000000000E+00 -0.00000000000E+00 -0.38248875838E+02  0.38248875838E+02  0.00000000000E+00 0.  1.
         21    1    1    2  503  502 -0.24861843337E+02  0.12276955046E+02 -0.20122290024E+02  0.34259910027E+02  0.00000000000E+00 0. -1.
         21    1    1    2  504  501  0.24861843337E+02 -0.12276955046E+02  0.63244467139E+01  0.28439998339E+02  0.00000000000E+00 0.  1.
<mgrwt>
<rscale>  2 0.27727872E+02</rscale>
<asrwt>0</asrwt>
<pdfrwt beam="1">  1       21 0.37616973E-02 0.27727872E+02</pdfrwt>
<pdfrwt beam="2">  1       21 0.58844424E-02 0.27727872E+02</pdfrwt>
<totfact> 0.65030924E+07</totfact>
</mgrwt>
</event>
<event>
 4    1  0.4353697E+006  0.2881575E+02  0.7546771E-02  0.1611560E+00
         21   -1    0    0  502  501  0.00000000000E+00  0.00000000000E+00  0.22701450127E+03  0.22701450127E+03  0.00000000000E+00 0.  1.
         21   -1    0    0  503  502 -0.00000000000E+00 -0.00000000000E+00 -0.11065484808E+02  0.11065484808E+02  0.00000000000E+00 0.  1.
         21    1    1    2  503  504  0.28559156741E+02  0.38368901733E+01  0.10575992903E+02  0.30695256732E+02  0.00000000000E+00 0.  1.
         21    1    1    2  504  501 -0.28559156741E+02 -0.38368901733E+01  0.20537302356E+03  0.20738472935E+03  0.00000000000E+00 0.  1.
<mgrwt>
<rscale>  2 0.28815745E+02</rscale>
<asrwt>0</asrwt>
<pdfrwt beam="1">  1       21 0.34925305E-01 0.28815745E+02</pdfrwt>
<pdfrwt beam="2">  1       21 0.17023824E-02 0.28815745E+02</pdfrwt>
<totfact> 0.10521839E+07</totfact>
</mgrwt>
</event>
<event>
 4    1  0.4353697E+006  0.2287741E+02  0.7546771E-02  0.1693505E+00
         21   -1    0    0  503  501  0.00000000000E+00  0.00000000000E+00  0.25354621482E+02  0.25354621482E+02  0.00000000000E+00 0. -1.
         21   -1    0    0  501  502 -0.00000000000E+00 -0.00000000000E+00 -0.50012777070E+02  0.50012777070E+02  0.00000000000E+00 0. -1.
         21    1    1    2  503  504 -0.22411257453E+02  0.45946977041E+01  0.16549056154E+02  0.28235562102E+02  0.00000000000E+00 0. -1.
         21    1    1    2  504  502  0.22411257453E+02 -0.45946977041E+01 -0.41207211742E+02  0.47131836450E+02  0.00000000000E+00 0. -1.
<mgrwt>
<rscale>  2 0.22877406E+02</rscale>
<asrwt>0</asrwt>
<pdfrwt beam="1">  1       21 0.39007111E-02 0.22877406E+02</pdfrwt>
<pdfrwt beam="2">  1       21 0.76942733E-02 0.22877406E+02</pdfrwt>
<totfact> 0.37922435E+07</totfact>
</mgrwt>
</event>
<event>
 4    1  0.4353697E+006  0.2368621E+02  0.7546771E-02  0.1680622E+00
         21   -1    0    0  502  501  0.00000000000E+00  0.00000000000E+00  0.33322213201E+02  0.33322213201E+02  0.00000000000E+00 0.  1.
         21   -1    0    0  503  502 -0.00000000000E+00 -0.00000000000E+00 -0.22180431345E+02  0.22180431345E+02  0.00000000000E+00 0.  1.
         21    1    1    2  503  504 -0.65227593273E+01  0.22770381182E+02 -0.80504647973E+01  0.25016926907E+02  0.00000000000E+00 0.  1.
         21    1    1    2  504  501  0.65227593273E+01 -0.22770381182E+02  0.19192246653E+02  0.30485717639E+02  0.00000000000E+00 0.  1.
<mgrwt>
<rscale>  2 0.23686212E+02</rscale>
<asrwt>0</asrwt>
<pdfrwt beam="1">  1       21 0.51264943E-02 0.23686212E+02</pdfrwt>
<pdfrwt beam="2">  1       21 0.34123741E-02 0.23686212E+02</pdfrwt>
<totfact> 0.90837597E+07</totfact>
</mgrwt>
</event>
<event>
 4    1  0.4353697E+006  0.2886444E+02  0.7546771E-02  0.1610991E+00
         21   -1    0    0  504  501  0.00000000000E+00  0.00000000000E+00  0.23448986698E+02  0.23448986698E+02  0.00000000000E+00 0. -1.
         21   -1    0    0  503  502 -0.00000000000E+00 -0.00000000000E+00 -0.38748816732E+02  0.38748816732E+02  0.00000000000E+00 0. -1.
         21    1    1    2  503  501 -0.28446559216E+02 -0.48937782928E+01  0.13125131520E+01  0.28894263929E+02  0.00000000000E+00 0. -1.
         21    1    1    2  504  502  0.28446559216E+02  0.48937782928E+01 -0.16612343186E+02  0.33303539501E+02  0.00000000000E+00 0. -1.
<mgrwt>
<rscale>  2 0.28864438E+02</rscale>
<asrwt>0</asrwt>
<pdfrwt beam="1">  1       21 0.36075365E-02 0.28864438E+02</pdfrwt>
<pdfrwt beam="2">  1       21 0.59613563E-02 0.28864438E+02</pdfrwt>
<totfact> 0.68712757E+07</totfact>
</mgrwt>
</event>
<event>
 4    1  0.4353697E+006  0.2350795E+02  0.7546771E-02  0.1683406E+00
         21   -1    0    0  504  501  0.00000000000E+00  0.00000000000E+00  0.56450687853E+01  0.56450687853E+01  0.00000000000E+00 0.  1.
         21   -1    0    0  503  502 -0.00000000000E+00 -0.00000000000E+00 -0.44006476114E+03  0.44006476114E+03  0.00000000000E+00 0. -1.
         21    1    1    2  503  501 -0.26253186925E+01  0.23360897886E+02 -0.41371988953E+03  0.41438722331E+03  0.00000000000E+00 0. -1.
         21    1    1    2  504  502  0.26253186925E+01 -0.23360897886E+02 -0.20699802823E+02  0.31322606616E+02  0.00000000000E+00 0.  1.
<mgrwt>
<rscale>  2 0.23507953E+02</rscale>
<asrwt>0</asrwt>
<pdfrwt beam="1">  1       21 0.86847194E-03 0.23507953E+02</pdfrwt>
<pdfrwt beam="2">  1       21 0.67702285E-01 0.23507953E+02</pdfrwt>
<totfact> 0.77786531E+06</totfact>
</mgrwt>
</event>
<event>
 4    1  0.4353697E+006  0.2101679E+02  0.7546771E-02  0.1725833E+00
         21   -1    0    0  504  501  0.00000000000E+00  0.00000000000E+00  0.22295462173E+01  0.22295462173E+01  0.00000000000E+00 0.  1.
         21   -1    0    0  501  502 -0.00000000000E+00 -0.00000000000E+00 -0.21917825029E+03  0.21917825029E+03  0.00000000000E+00 0.  1.
         21    1    1    2  503  502  0.10384368058E+02 -0.18272120172E+02 -0.14279313225E+03  0.14433150763E+03  0.00000000000E+00 0.  1.
         21    1    1    2  504  503 -0.10384368058E+02  0.18272120172E+02 -0.74155571821E+02  0.77076288880E+02  0.00000000000E+00 0.  1.
<mgrwt>
<rscale>  2 0.21016790E+02</rscale>
<asrwt>0</asrwt>
<pdfrwt beam="1">  1       21 0.34300703E-03 0.21016790E+02</pdfrwt>
<pdfrwt beam="2">  1       21 0.33719739E-01 0.21016790E+02</pdfrwt>
<totfact> 0.11495990E+08</totfact>
</mgrwt>
</event>
<event>
 4    1  0.4353697E+006  0.2096159E+02  0.7546771E-02  0.1726855E+00
         21   -1    0    0  503  501  0.00000000000E+00  0.00000000000E+00  0.17852976597E+03  0.17852976597E+03  0.00000000000E+00 0. -1.
         21   -1    0    0  504  502 -0.00000000000E+00 -0.00000000000E+00 -0.26352590456E+01  0.26352590456E+01  0.00000000000E+00 0. -1.
         21    1    1    2  503  502 -0.11189630394E+02 -0.17725136254E+02  0.11123058487E+03  0.11318847686E+03  0.00000000000E+00 0. -1.
         21    1    1    2  504  501  0.11189630394E+02  0.17725136254E+02  0.64663922053E+02  0.67976548154E+02  0.00000000000E+00 0. -1.
<mgrwt>
<rscale>  2 0.20961591E+02</rscale>
<asrwt>0</asrwt>
<pdfrwt beam="1">  1       21 0.27466108E-01 0.20961591E+02</pdfrwt>
<pdfrwt beam="2">  1       21 0.40542461E-03 0.20961591E+02</pdfrwt>
<totfact> 0.13058724E+08</totfact>
</mgrwt>
</event>
<event>
 4    1  0.4353697E+006  0.2092483E+02  0.7546771E-02  0.1727538E+00
         21   -1    0    0  502  501  0.00000000000E+00  0.00000000000E+00  0.37455461292E+02  0.37455461292E+02  0.00000000000E+00 0. -1.
         21   -1    0    0  504  502 -0.00000000000E+00 -0.00000000000E+00 -0.13872493131E+02  0.13872493131E+02  0.00000000000E+00 0. -1.
         21    1    1    2  503  501 -0.20075906846E+02 -0.58996862477E+01  0.21971280807E+02  0.30341152150E+02  0.00000000000E+00 0. -1.
         21    1    1    2  504  503  0.20075906846E+02  0.58996862477E+01  0.16116873541E+01  0.20986802272E+02  0.00000000000E+00 0. -1.
<mgrwt>
<rscale>  2 0.20924826E+02</rscale>
<asrwt>0</asrwt>
<pdfrwt beam="1">  1       21 0.57623786E-02 0.20924826E+02</pdfrwt>
<pdfrwt beam="2">  1       21 0.21342297E-02 0.20924826E+02</pdfrwt>
<totfact> 0.15031664E+08</totfact>
</mgrwt>
</event>
<event>
 4    1  0.4353697E+006  0.2062233E+02  0.7546771E-02  0.1733228E+00
         21   -1    0    0  504  501  0.00000000000E+00  0.00000000000E+00  0.21960732032E+02  0.21960732032E+02  0.00000000000E+00 0. -1.
         21   -1    0    0  501  502 -0.00000000000E+00 -0.00000000000E+00 -0.20815054125E+02  0.20815054125E+02  0.00000000000E+00 0. -1.
         21    1    1    2  503  502 -0.71747025236E+01 -0.19334016131E+02 -0.50712855793E+01  0.21236724641E+02  0.00000000000E+00 0. -1.
         21    1    1    2  504  503  0.71747025236E+01  0.19334016131E+02  0.62169634862E+01  0.21539061517E+02  0.00000000000E+00 0. -1.
<mgrwt>
<rscale>  2 0.20622331E+02</rscale>
<asrwt>0</asrwt>
<pdfrwt beam="1">  1       21 0.33785742E-02 0.20622331E+02</pdfrwt>
<pdfrwt beam="2">  1       21 0.32023160E-02 0.20622331E+02</pdfrwt>
<totfact> 0.18562989E+08</totfact>
</mgrwt>
</event>
<event>
 4    1  0.4353697E+006  0.2098264E+02  0.7546771E-02  0.1726465E+00
         21   -1    0    0  504  501  0.00000000000E+00  0.00000000000E+00  0.65728308996E+03  0.65728308996E+03  0.00000000000E+00 0.  1.
         21   -1    0    0  501  502 -0.00000000000E+00 -0.00000000000E+00 -0.68150570199E+01  0.68150570199E+01  0.00000000000E+00 0.  1.
         21    1    1    2  503  502  0.20506879507E+02  0.44428558168E+01  0.99250488200E+01  0.23211584802E+02  0.00000000000E+00 0.  1.
         21    1    1    2  504  503 -0.20506879507E+02 -0.44428558168E+01  0.64054298412E+03  0.64088656218E+03  0.00000000000E+00 0.  1.
<mgrwt>
<rscale>  2 0.20982637E+02</rscale>
<asrwt>0</asrwt>
<pdfrwt beam="1">  1       21 0.10112043E+00 0.20982637E+02</pdfrwt>
<pdfrwt beam="2">  1       21 0.10484708E-02 0.20982637E+02</pdfrwt>
<totfact> 0.24771248E+06</totfact>
</mgrwt>
</event>
<event>
 4    1  0.4353697E+006  0.2519473E+02  0.7546771E-02  0.1658221E+00
         21   -1    0    0  504  501  0.00000000000E+00  0.00000000000E+00  0.37656931739E+02  0.37656931739E+02  0.00000000000E+00 0.  1.
         21   -1    0    0  503  502 -0.00000000000E+00 -0.00000000000E+00 -0.73499276559E+02  0.73499276559E+02  0.00000000000E+00 0.  1.
         21    1    1    2  503  501  0.15189906653E+02 -0.20100778218E+02 -0.66711462033E+02  0.71310544211E+02  0.00000000000E+00 0.  1.
         21    1    1    2  504  502 -0.15189906653E+02  0.20100778218E+02  0.30869117212E+02  0.39845664087E+02  0.00000000000E+00 0.  1.
<mgrwt>
<rscale>  2 0.25194733E+02</rscale>
<asrwt>0</asrwt>
<pdfrwt beam="1">  1       21 0.57933742E-02 0.25194733E+02</pdfrwt>
<pdfrwt beam="2">  1       21 0.11307581E-01 0.25194733E+02</pdfrwt>
<totfact> 0.10934264E+07</totfact>
</mgrwt>
</event>
<event>
 4    1  0.4353697E+006  0.2050475E+02  0.7546771E-02  0.1735473E+00
         21   -1    0    0  504  501  0.00000000000E+00  0.00000000000E+00  0.30510842107E+03  0.30510842107E+03  0.00000000000E+00 0. -1.
         21   -1    0    0  503  502 -0.00000000000E+00 -0.00000000000E+00 -0.26147100498E+01  0.26147100498E+01  0.00000000000E+00 0.  1.
         21    1    1    2  503  501  0.19837839938E+02  0.51869882062E+01  0.45431364048E+02  0.49844293348E+02  0.00000000000E+00 0.  1.
         21    1    1    2  504  502 -0.19837839938E+02 -0.51869882062E+01  0.25706234698E+03  0.25787883778E+03  0.00000000000E+00 0. -1.
<mgrwt>
<rscale>  2 0.20504749E+02</rscale>
<asrwt>0</asrwt>
<pdfrwt beam="1">  1       21 0.46939729E-01 0.20504749E+02</pdfrwt>
<pdfrwt beam="2">  1       21 0.40226333E-03 0.20504749E+02</pdfrwt>
<totfact> 0.48682562E+07</totfact>
</mgrwt>
</event>
<event>
 4    1  0.4353697E+006  0.2848551E+02  0.7546771E-02  0.1615459E+00
         21   -1    0    0  503  501  0.00000000000E+00  0.00000000000E+00  0.23687241814E+02  0.23687241814E+02  0.00000000000E+00 0.  1.
         21   -1    0    0  501  502 -0.00000000000E+00 -0.00000000000E+00 -0.70044430396E+03  0.70044430396E+03  0.00000000000E+00 0.  1.
         21    1    1    2  503  504  0.27822248067E+02 -0.61112026372E+01  0.14722715111E+02  0.32065286922E+02  0.00000000000E+00 0.  1.
         21    1    1    2  504  502 -0.27822248067E+02  0.61112026372E+01 -0.69147977725E+03  0.69206625885E+03  0.00000000000E+00 0.  1.
<mgrwt>
<rscale>  2 0.28485510E+02</rscale>
<asrwt>0</asrwt>
<pdfrwt beam="1">  1       21 0.36441905E-02 0.28485510E+02</pdfrwt>
<pdfrwt beam="2">  1       21 0.10776068E+00 0.28485510E+02</pdfrwt>
<totfact> 0.32392277E+05</totfact>
</mgrwt>
</event>
<event>
 4    1  0.4353697E+006  0.2137548E+02  0.7546771E-02  0.1719282E+00
         21   -1    0    0  503  501  0.00000000000E+00  0.00000000000E+00  0.64054018333E+02  0.64054018333E+02  0.00000000000E+00 0.  1.
         21   -1    0    0  501  502 -0.00000000000E+00 -0.00000000000E+00 -0.75283239202E+01  0.75283239202E+01  0.00000000000E+00 0.  1.
         21    1    1    2  503  504 -0.16949052799E+02  0.13024621397E+02  0.36462294653E+02  0.42265944739E+02  0.00000000000E+00 0.  1.
         21    1    1    2  504  502  0.16949052799E+02 -0.13024621397E+02  0.20063399759E+02  0.29316397514E+02  0.00000000000E+00 0.  1.
<mgrwt>
<rscale>  2 0.21375480E+02</rscale>
<asrwt>0</asrwt>
<pdfrwt beam="1">  1       21 0.98544640E-02 0.21375480E+02</pdfrwt>
<pdfrwt beam="2">  1       21 0.11582037E-02 0.21375480E+02</pdfrwt>
<totfact> 0.16033051E+08</totfact>
</mgrwt>
</event>
<event>
 4    1  0.4353697E+006  0.2742224E+02  0.7546771E-02  0.1628465E+00
         21   -1    0    0  503  501  0.00000000000E+00  0.00000000000E+00  0.99349194906E+01  0.99349194906E+01  0.00000000000E+00 0.  1.
         21   -1    0    0  504  502 -0.00000000000E+00 -0.00000000000E+00 -0.19112676422E+03  0.19112676422E+03  0.00000000000E+00 0. -1.
         21    1    1    2  503  502  0.49268301828E+01 -0.26976015888E+02 -0.12467386582E+02  0.30123326792E+02  0.00000000000E+00 0.  1.
         21    1    1    2  504  501 -0.49268301828E+01  0.26976015888E+02 -0.16872445815E+03  0.17093835692E+03  0.00000000000E+00 0. -1.
<mgrwt>
<rscale>  2 0.27422237E+02</rscale>
<asrwt>0</asrwt>
<pdfrwt beam="1">  1       21 0.15284491E-02 0.27422237E+02</pdfrwt>
<pdfrwt beam="2">  1       21 0.29404119E-01 0.27422237E+02</pdfrwt>
<totfact> 0.16915111E+07</totfact>
</mgrwt>
</event>
<event>
 4    1  0.4353697E+006  0.2479774E+02  0.7546771E-02  0.1663924E+00
         21   -1    0    0  504  501  0.00000000000E+00  0.00000000000E+00  0.20585243928E+03  0.20585243928E+03  0.00000000000E+00 0.  1.
         21   -1    0    0  503  502 -0.00000000000E+00 -0.00000000000E+00 -0.39900159372E+02  0.39900159372E+02  0.00000000000E+00 0. -1.
         21    1    1    2  503  501 -0.21475566683E+02 -0.12398715926E+02  0.20116324015E+03  0.20268590802E+03  0.00000000000E+00 0.  1.
         21    1    1    2  504  502  0.21475566683E+02  0.12398715926E+02 -0.35210960243E+02  0.43066690634E+02  0.00000000000E+00 0. -1.
<mgrwt>
<rscale>  2 0.24797744E+02</rscale>
<asrwt>0</asrwt>
<pdfrwt beam="1">  1       21 0.31669606E-01 0.24797744E+02</pdfrwt>
<pdfrwt beam="2">  1       21 0.61384862E-02 0.24797744E+02</pdfrwt>
<totfact> 0.16450544E+06</totfact>
</mgrwt>
</event>
<event>
 4    1  0.4353697E+006  0.2061133E+02  0.7546771E-02  0.1733437E+00
         21   -1    0    0  503  501  0.00000000000E+00  0.00000000000E+00  0.12550399634E+02  0.12550399634E+02  0.00000000000E+00 0.  1.
         21   -1    0    0  504  502 -0.00000000000E+00 -0.00000000000E+00 -0.31164138048E+03  0.31164138048E+03  0.00000000000E+00 0. -1.
         21    1    1    2  503  502 -0.43831261255E+01  0.20139893977E+02 -0.30258517779E+03  0.30328636128E+03  0.00000000000E+00 0. -1.
         21    1    1    2  504  501  0.43831261255E+01 -0.20139893977E+02  0.34941969455E+01  0.20905418827E+02  0.00000000000E+00 0.  1.
<mgrwt>
<rscale>  2 0.20611335E+02</rscale>
<asrwt>0</asrwt>
<pdfrwt beam="1">  1       21 0.19308305E-02 0.20611335E+02</pdfrwt>
<pdfrwt beam="2">  1       21 0.47944833E-01 0.20611335E+02</pdfrwt>
<totfact> 0.45081221E+06</totfact>
</mgrwt>
</event>
<event>
 4    1  0.4353697E+006  0.2319373E+02  0.7546771E-02  0.1688389E+00
         21   -1    0    0  503  501  0.00000000000E+00  0.00000000000E+00  0.54195754336E+02  0.54195754336E+02  0.00000000000E+00 0. -1.
         21   -1    0    0  501  502 -0.00000000000E+00 -0.00000000000E+00 -0.57499916311E+02  0.57499916311E+02  0.00000000000E+00 0.  1.
         21    1    1    2  503  504  0.23151244163E+02  0.14031543738E+01  0.49147137498E+02  0.54345101644E+02  0.00000000000E+00 0. -1.
         21    1    1    2  504  502 -0.23151244163E+02 -0.14031543738E+01 -0.52451299473E+02  0.57350569002E+02  0.00000000000E+00 0.  1.
<mgrwt>
<rscale>  2 0.23193726E+02</rscale>
<asrwt>0</asrwt>
<pdfrwt beam="1">  1       21 0.83378083E-02 0.23193726E+02</pdfrwt>
<pdfrwt beam="2">  1       21 0.88461410E-02 0.23193726E+02</pdfrwt>
<totfact> 0.89592419E+06</totfact>
</mgrwt>
</event>
<event>
 4    1  0.4353697E+006  0.2851336E+02  0.7546771E-02  0.1615128E+00
         21   -1    0    0  504  501  0.00000000000E+00  0.00000000000E+00  0.46161189252E+03  0.46161189252E+03  0.00000000000E+00 0.  1.
         21   -1    0    0  503  502 -0.00000000000E+00 -0.00000000000E+00 -0.43824922336E+01  0.43824922336E+01  0.00000000000E+00 0.  1.
         21    1    1    2  503  501  0.15019185478E+02 -0.24237071602E+02  0.40881027206E+03  0.40980342863E+03  0.00000000000E+00 0.  1.
         21    1    1    2  504  502 -0.15019185478E+02  0.24237071602E+02  0.48419128225E+02  0.56190956126E+02  0.00000000000E+00 0.  1.
<mgrwt>
<rscale>  2 0.28513358E+02</rscale>
<asrwt>0</asrwt>
<pdfrwt beam="1">  1       21 0.71017176E-01 0.28513358E+02</pdfrwt>
<pdfrwt beam="2">  1       21 0.67422994E-03 0.28513358E+02</pdfrwt>
<totfact> 0.10615484E+07</totfact>
</mgrwt>
</event>
<event>
 4    1  0.4353697E+006  0.2396672E+02  0.7546771E-02  0.1676303E+00
         21   -1    0    0  502  501  0.00000000000E+00  0.00000000000E+00  0.19659486585E+03  0.19659486585E+03  0.00000000000E+00 0. -1.
         21   -1    0    0  504  502 -0.00000000000E+00 -0.00000000000E+00 -0.91454011658E+01  0.91454011658E+01  0.00000000000E+00 0. -1.
         21    1    1    2  503  501  0.23855735831E+02 -0.23038590639E+01  0.17858610234E+03  0.18018712453E+03  0.00000000000E+00 0. -1.
         21    1    1    2  504  503 -0.23855735831E+02  0.23038590639E+01  0.88633623431E+01  0.25553142481E+02  0.00000000000E+00 0. -1.
<mgrwt>
<rscale>  2 0.23966725E+02</rscale>
<asrwt>0</asrwt>
<pdfrwt beam="1">  1       21 0.30245361E-01 0.23966725E+02</pdfrwt>
<pdfrwt beam="2">  1       21 0.14069849E-02 0.23966725E+02</pdfrwt>
<totfact> 0.17763979E+07</totfact>
</mgrwt>
</event>
<event>
 4    1  0.4353697E+006  0.2286869E+02  0.7546771E-02  0.1693647E+00
         21   -1    0    0  504  501  0.00000000000E+00  0.00000000000E+00  0.68646396502E+01  0.68646396502E+01  0.00000000000E+00 0. -1.
         21   -1    0    0  503  502 -0.00000000000E+00 -0.00000000000E+00 -0.15660465467E+03  0.15660465467E+03  0.00000000000E+00 0. -1.
         21    1    1    2  503  501 -0.21995034026E+02 -0.62606404902E+01 -0.16298406259E+02  0.28082293135E+02  0.00000000000E+00 0. -1.
         21    1    1    2  504  502  0.21995034026E+02  0.62606404902E+01 -0.13344160876E+03  0.13538700118E+03  0.00000000000E+00 0. -1.
<mgrwt>
<rscale>  2 0.22868693E+02</rscale>
<asrwt>0</asrwt>
<pdfrwt beam="1">  1       21 0.10560984E-02 0.22868693E+02</pdfrwt>
<pdfrwt beam="2">  1       21 0.24093024E-01 0.22868693E+02</pdfrwt>
<totfact> 0.40829752E+07</totfact>
</mgrwt>
</event>
<event>
 4    1  0.4353697E+006  0.2074812E+02  0.7546771E-02  0.1730847E+00
         21   -1    0    0  502  501  0.00000000000E+00  0.00000000000E+00  0.91100121523E+02  0.91100121523E+02  0.00000000000E+00 0.  1.
         21   -1    0    0  503  502 -0.00000000000E+00 -0.00000000000E+00 -0.78042012518E+01  0.78042012518E+01  0.00000000000E+00 0.  1.
         21    1    1    2  503  504  0.33217680949E+01  0.20480482271E+02  0.10587202639E+02  0.23293199803E+02  0.00000000000E+00 0.  1.
         21    1    1    2  504  501 -0.33217680949E+01 -0.20480482271E+02  0.72708717632E+02  0.75611122972E+02  0.00000000000E+00 0.  1.
<mgrwt>
<rscale>  2 0.20748116E+02</rscale>
<asrwt>0</asrwt>
<pdfrwt beam="1">  1       21 0.14015403E-01 0.20748116E+02</pdfrwt>
<pdfrwt beam="2">  1       21 0.12006464E-02 0.20748116E+02</pdfrwt>
<totfact> 0.83719736E+07</totfact>
</mgrwt>
</event>
<event>
 4    1  0.4353697E+006  0.2050133E+02  0.7546771E-02  0.1735538E+00
         21   -1    0    0  502  501  0.00000000000E+00  0.00000000000E+00  0.25842398776E+02  0.25842398776E+02  0.00000000000E+00 0.  1.
         21   -1    0    0  503  502 -0.00000000000E+00 -0.00000000000E+00 -0.17564195301E+02  0.17564195301E+02  0.00000000000E+00 0. -1.
         21    1    1    2  503  504 -0.63188967434E+01  0.19503231623E+02 -0.17655161757E+01  0.20577209412E+02  0.00000000000E+00 0. -1.
         21    1    1    2  504  501  0.63188967434E+01 -0.19503231623E+02  0.10043719650E+02  0.22829384666E+02  0.00000000000E+00 0.  1.
<mgrwt>
<rscale>  2 0.20501329E+02</rscale>
<asrwt>0</asrwt>
<pdfrwt beam="1">  1       21 0.39757537E-02 0.20501329E+02</pdfrwt>
<pdfrwt beam="2">  1       21 0.27021839E-02 0.20501329E+02</pdfrwt>
<totfact> 0.18689927E+08</totfact>
</mgrwt>
</event>
<event>
 4    1  0.4353697E+006  0.2203466E+02  0.7546771E-02  0.1707653E+00
         21   -1    0    0  503  501  0.00000000000E+00  0.00000000000E+00  0.10365768635E+02  0.10365768635E+02  0.00000000000E+00 0.  1.
         21   -1    0    0  504  502 -0.00000000000E+00 -0.00000000000E+00 -0.48768258747E+02  0.48768258747E+02  0.00000000000E+00 0.  1.
         21    1    1    2  503  502 -0.18329148401E+02 -0.12229814706E+02 -0.13321037126E+02  0.25748321867E+02  0.00000000000E+00 0.  1.
         21    1    1    2  504  501  0.18329148401E+02  0.12229814706E+02 -0.25081452986E+02  0.33385705515E+02  0.00000000000E+00 0.  1.
<mgrwt>
<rscale>  2 0.22034656E+02</rscale>
<asrwt>0</asrwt>
<pdfrwt beam="1">  1       21 0.15947336E-02 0.22034656E+02</pdfrwt>
<pdfrwt beam="2">  1       21 0.75028090E-02 0.22034656E+02</pdfrwt>
<totfact> 0.15580407E+08</totfact>
</mgrwt>
</event>
<event>
 4    1  0.4353697E+006  0.2463677E+02  0.7546771E-02  0.1666275E+00
         21   -1    0    0  502  501  0.00000000000E+00  0.00000000000E+00  0.49368207383E+02  0.49368207383E+02  0.00000000000E+00 0. -1.
         21   -1    0    0  503  502 -0.00000000000E+00 -0.00000000000E+00 -0.21637512074E+02  0.21637512074E+02  0.00000000000E+00 0.  1.
         21    1    1    2  503  504 -0.28800847010E+01  0.24467848167E+02 -0.94636985514E+01  0.26391894060E+02  0.00000000000E+00 0.  1.
         21    1    1    2  504  501  0.28800847010E+01 -0.24467848167E+02  0.37194393860E+02  0.44613825396E+02  0.00000000000E+00 0. -1.
<mgrwt>
<rscale>  2 0.24636771E+02</rscale>
<asrwt>0</asrwt>
<pdfrwt beam="1">  1       21 0.75951088E-02 0.24636771E+02</pdfrwt>
<pdfrwt beam="2">  1       21 0.33288480E-02 0.24636771E+02</pdfrwt>
<totfact> 0.50620767E+07</totfact>
</mgrwt>
</event>
<event>
 4    1  0.4353697E+006  0.2233272E+02  0.7546771E-02  0.1702560E+00
         21   -1    0    0  503  501  0.00000000000E+00  0.00000000000E+00  0.42493467490E+02  0.42493467490E+02  0.00000000000E+00 0.  1.
         21   -1    0    0  501  502 -0.00000000000E+00 -0.00000000000E+00 -0.61135871905E+02  0.61135871905E+02  0.00000000000E+00 0. -1.
         21    1    1    2  503  504 -0.23708614438E+01 -0.22206519371E+02  0.37254854037E+02  0.43435868080E+02  0.00000000000E+00 0.  1.
         21    1    1    2  504  502  0.23708614438E+01  0.22206519371E+02 -0.55897258452E+02  0.60193471315E+02  0.00000000000E+00 0. -1.
<mgrwt>
<rscale>  2 0.22332722E+02</rscale>
<asrwt>0</asrwt>
<pdfrwt beam="1">  1       21 0.65374565E-02 0.22332722E+02</pdfrwt>
<pdfrwt beam="2">  1       21 0.94055187E-02 0.22332722E+02</pdfrwt>
<totfact> 0.11933776E+07</totfact>
</mgrwt>
</event>
<event>
 4    1  0.4353697E+006  0.2239407E+02  0.7546771E-02  0.1701525E+00
         21   -1    0    0  504  501  0.00000000000E+00  0.00000000000E+00  0.46710636248E+02  0.46710636248E+02  0.00000000000E+00 0. -1.
         21   -1    0    0  503  502 -0.00000000000E+00 -0.00000000000E+00 -0.14384322577E+03  0.14384322577E+03  0.00000000000E+00 0.  1.
         21    1    1    2  503  501  0.79166086033E+01 -0.20948071129E+02 -0.14021863418E+03  0.14199563284E+03  0.00000000000E+00 0.  1.
         21    1    1    2  504  502 -0.79166086033E+01  0.20948071129E+02  0.43086044660E+02  0.48558229171E+02  0.00000000000E+00 0. -1.
<mgrwt>
<rscale>  2 0.22394070E+02</rscale>
<asrwt>0</asrwt>
<pdfrwt beam="1">  1       21 0.71862518E-02 0.22394070E+02</pdfrwt>
<pdfrwt beam="2">  1       21 0.22129727E-01 0.22394070E+02</pdfrwt>
<totfact> 0.23972087E+06</totfact>
</mgrwt>
</event>
<event>
 4    1  0.4353697E+006  0.2417662E+02  0.7546771E-02  0.1673118E+00
         21   -1    0    0  502  501  0.00000000000E+00  0.00000000000E+00  0.19818574447E+03  0.19818574447E+03  0.00000000000E+00 0. -1.
         21   -1    0    0  504  502 -0.00000000000E+00 -0.00000000000E+00 -0.30491971882E+02  0.30491971882E+02  0.00000000000E+00 0. -1.
         21    1    1    2  503  501 -0.24162653935E+02  0.82159498072E+00  0.19251550426E+03  0.19402764814E+03  0.00000000000E+00 0. -1.
         21    1    1    2  504  503  0.24162653935E+02 -0.82159498072E+00 -0.24821731674E+02  0.34650068207E+02  0.00000000000E+00 0. -1.
<mgrwt>
<rscale>  2 0.24176618E+02</rscale>
<asrwt>0</asrwt>
<pdfrwt beam="1">  1       21 0.30490114E-01 0.24176618E+02</pdfrwt>
<pdfrwt beam="2">  1       21 0.46910727E-02 0.24176618E+02</pdfrwt>
<totfact> 0.27045490E+06</totfact>
</mgrwt>
</event>
<event>
 4    1  0.4353697E+006  0.2836998E+02  0.7546771E-02  0.1616838E+00
         21   -1    0    0  503  501  0.00000000000E+00  0.00000000000E+00  0.59772453479E+03  0.59772453479E+03  0.00000000000E+00 0. -1.
         21   -1    0    0  501  502 -0.00000000000E+00 -0.00000000000E+00 -0.40491781660E+01  0.40491781660E+01  0.00000000000E+00 0. -1.
         21    1    1    2  503  504  0.22539745690E+02 -0.17228339788E+02  0.54265602125E+03  0.54339710454E+03  0.00000000000E+00 0. -1.
         21    1    1    2  504  502 -0.22539745690E+02  0.17228339788E+02  0.51019335369E+02  0.58376608407E+02  0.00000000000E+00 0. -1.
<mgrwt>
<rscale>  2 0.28369981E+02</rscale>
<asrwt>0</asrwt>
<pdfrwt beam="1">  1       21 0.91957551E-01 0.28369981E+02</pdfrwt>
<pdfrwt beam="2">  1       21 0.62295096E-03 0.28369981E+02</pdfrwt>
<totfact> 0.69010380E+06</totfact>
</mgrwt>
</event>
<event>
 4    1  0.4353697E+006  0.2239864E+02  0.7546771E-02  0.1701448E+00
         21   -1    0    0  503  501  0.00000000000E+00  0.00000000000E+00  0.36943451911E+01  0.36943451911E+01  0.00000000000E+00 0.  1.
         21   -1    0    0  504  502 -0.00000000000E+00 -0.00000000000E+00 -0.22376602547E+03  0.22376602547E+03  0.00000000000E+00 0.  1.
         21    1    1    2  503  502 -0.18119149843E+02 -0.13167969946E+02 -0.18134273354E+03  0.18272078708E+03  0.00000000000E+00 0.  1.
         21    1    1    2  504  501  0.18119149843E+02  0.13167969946E+02 -0.38728946745E+02  0.44739583587E+02  0.00000000000E+00 0.  1.
<mgrwt>
<rscale>  2 0.22398639E+02</rscale>
<asrwt>0</asrwt>
<pdfrwt beam="1">  1       21 0.56836075E-03 0.22398639E+02</pdfrwt>
<pdfrwt beam="2">  1       21 0.34425545E-01 0.22398639E+02</pdfrwt>
<totfact> 0.53629686E+07</totfact>
</mgrwt>
</event>
<event>
 4    1  0.4353697E+006  0.3145401E+02  0.7546771E-02  0.1582551E+00
         21   -1    0    0  504  501  0.00000000000E+00  0.00000000000E+00  0.13482954836E+03  0.13482954836E+03  0.00000000000E+00 0. -1.
         21   -1    0    0  503  502 -0.00000000000E+00 -0.00000000000E+00 -0.24574307932E+03  0.24574307932E+03  0.00000000000E+00 0.  1.
         21    1    1    2  503  501 -0.30463975679E+02  0.78294860873E+01 -0.24288060182E+03  0.24490884306E+03  0.00000000000E+00 0.  1.
         21    1    1    2  504  502  0.30463975679E+02 -0.78294860873E+01  0.13196707086E+03  0.13566378462E+03  0.00000000000E+00 0. -1.
<mgrwt>
<rscale>  2 0.31454009E+02</rscale>
<asrwt>0</asrwt>
<pdfrwt beam="1">  1       21 0.20743007E-01 0.31454009E+02</pdfrwt>
<pdfrwt beam="2">  1       21 0.37806628E-01 0.31454009E+02</pdfrwt>
<totfact> 0.15387952E+05</totfact>
</mgrwt>
</event>
<event>
 4    1  0.4353697E+006  0.2443203E+02  0.7546771E-02  0.1669296E+00
         21   -1    0    0  503  501  0.00000000000E+00  0.00000000000E+00  0.93550293094E+01  0.93550293094E+01  0.00000000000E+00 0. -1.
         21   -1    0    0  501  502 -0.00000000000E+00 -0.00000000000E+00 -0.36693456076E+03  0.36693456076E+03  0.00000000000E+00 0. -1.
         21    1    1    2  503  504  0.23878729953E+02 -0.51701174026E+01 -0.77842823036E+01  0.25642131525E+02  0.00000000000E+00 0. -1.
         21    1    1    2  504  502 -0.23878729953E+02  0.51701174026E+01 -0.34979524915E+03  0.35064745855E+03  0.00000000000E+00 0. -1.
<mgrwt>
<rscale>  2 0.24432025E+02</rscale>
<asrwt>0</asrwt>
<pdfrwt beam="1">  1       21 0.14392352E-02 0.24432025E+02</pdfrwt>
<pdfrwt beam="2">  1       21 0.56451474E-01 0.24432025E+02</pdfrwt>
<totfact> 0.52647662E+06</totfact>
</mgrwt>
</event>
<event>
 4    1  0.4353697E+006  0.2549634E+02  0.7546771E-02  0.1653973E+00
         21   -1    0    0  503  501  0.00000000000E+00  0.00000000000E+00  0.29167407477E+02  0.29167407477E+02  0.00000000000E+00 0. -1.
         21   -1    0    0  504  502 -0.00000000000E+00 -0.00000000000E+00 -0.29681177664E+02  0.29681177664E+02  0.00000000000E+00 0.  1.
         21    1    1    2  503  502 -0.24367831072E+02  0.75014813057E+01 -0.14942797699E+02  0.29552506087E+02  0.00000000000E+00 0.  1.
         21    1    1    2  504  501  0.24367831072E+02 -0.75014813057E+01  0.14429027512E+02  0.29296079053E+02  0.00000000000E+00 0. -1.
<mgrwt>
<rscale>  2 0.25496341E+02</rscale>
<asrwt>0</asrwt>
<pdfrwt beam="1">  1       21 0.44872935E-02 0.25496341E+02</pdfrwt>
<pdfrwt beam="2">  1       21 0.45663350E-02 0.25496341E+02</pdfrwt>
<totfact> 0.72302762E+07</totfact>
</mgrwt>
</event>
<event>
 4    1  0.4353697E+006  0.2154254E+02  0.7546771E-02  0.1716286E+00
         21   -1    0    0  504  501  0.00000000000E+00  0.00000000000E+00  0.44689794321E+01  0.44689794321E+01  0.00000000000E+00 0.  1.
         21   -1    0    0  503  502 -0.00000000000E+00 -0.00000000000E+00 -0.26249824112E+03  0.26249824112E+03  0.00000000000E+00 0. -1.
         21    1    1    2  503  501 -0.21257243433E+02 -0.34943928164E+01 -0.23278878844E+03  0.23378344938E+03  0.00000000000E+00 0. -1.
         21    1    1    2  504  502  0.21257243433E+02  0.34943928164E+01 -0.25240473244E+02  0.33183771170E+02  0.00000000000E+00 0.  1.
<mgrwt>
<rscale>  2 0.21542543E+02</rscale>
<asrwt>0</asrwt>
<pdfrwt beam="1">  1       21 0.68753514E-03 0.21542543E+02</pdfrwt>
<pdfrwt beam="2">  1       21 0.40384354E-01 0.21542543E+02</pdfrwt>
<totfact> 0.29770162E+07</totfact>
</mgrwt>
</event>
<event>
 4    1  0.4353697E+006  0.2087311E+02  0.7546771E-02  0.1728503E+00
         21   -1    0    0  503  501  0.00000000000E+00  0.00000000000E+00  0.46708831443E+02  0.46708831443E+02  0.00000000000E+00 0. -1.
         21   -1    0    0  504  502 -0.00000000000E+00 -0.00000000000E+00 -0.45886913213E+02  0.45886913213E+02  0.00000000000E+00 0.  1.
         21    1    1    2  503  502  0.20589824253E+02 -0.34272165792E+01 -0.40914238707E+02  0.45931052734E+02  0.00000000000E+00 0.  1.
         21    1    1    2  504  501 -0.20589824253E+02  0.34272165792E+01  0.41736156937E+02  0.46664691921E+02  0.00000000000E+00 0. -1.
<mgrwt>
<rscale>  2 0.20873109E+02</rscale>
<asrwt>0</asrwt>
<pdfrwt beam="1">  1       21 0.71859741E-02 0.20873109E+02</pdfrwt>
<pdfrwt beam="2">  1       21 0.70595251E-02 0.20873109E+02</pdfrwt>
<totfact> 0.16118273E+07</totfact>
</mgrwt>
</event>
<event>
 4    1  0.4353697E+006  0.2813981E+02  0.7546771E-02  0.1619610E+00
         21   -1    0    0  503  501  0.00000000000E+00  0.00000000000E+00  0.54382783686E+01  0.54382783686E+01  0.00000000000E+00 0. -1.
         21   -1    0    0  504  502 -0.00000000000E+00 -0.00000000000E+00 -0.16793431015E+03  0.16793431015E+03  0.00000000000E+00 0. -1.
         21    1    1    2  503  502  0.28078178513E+02  0.18614522505E+01 -0.11285645209E+03  0.11631177022E+03  0.00000000000E+00 0. -1.
         21    1    1    2  504  501 -0.28078178513E+02 -0.18614522505E+01 -0.49639579689E+02  0.57060818298E+02  0.00000000000E+00 0. -1.
<mgrwt>
<rscale>  2 0.28139814E+02</rscale>
<asrwt>0</asrwt>
<pdfrwt beam="1">  1       21 0.83665832E-03 0.28139814E+02</pdfrwt>
<pdfrwt beam="2">  1       21 0.25836044E-01 0.28139814E+02</pdfrwt>
<totfact> 0.53665377E+07</totfact>
</mgrwt>
</event>
<event>
 4    1  0.4353697E+006  0.2768347E+02  0.7546771E-02  0.1625203E+00
         21   -1    0    0  504  501  0.00000000000E+00  0.00000000000E+00  0.11602933989E+04  0.11602933989E+04  0.00000000000E+00 0. -1.
         21   -1    0    0  503  502 -0.00000000000E+00 -0.00000000000E+00 -0.33093135685E+01  0.33093135685E+01  0.00000000000E+00 0.  1.
         21    1    1    2  503  501  0.27465591569E+02  0.34663725842E+01  0.57979237307E+02  0.64249252275E+02  0.00000000000E+00 0.  1.
         21    1    1    2  504  502 -0.27465591569E+02 -0.34663725842E+01  0.10990048480E+04  0.10993534602E+04  0.00000000000E+00 0. -1.
<mgrwt>
<rscale>  2 0.27683469E+02</rscale>
<asrwt>0</asrwt>
<pdfrwt beam="1">  1       21 0.17850635E+00 0.27683469E+02</pdfrwt>
<pdfrwt beam="2">  1       21 0.50912609E-03 0.27683469E+02</pdfrwt>
<totfact> 0.19871869E+06</totfact>
</mgrwt>
</event>
<event>
 4    1  0.4353697E+006  0.2050816E+02  0.7546771E-02  0.1735408E+00
         21   -1    0    0  504  501  0.00000000000E+00  0.00000000000E+00  0.15471373556E+02  0.15471373556E+02  0.00000000000E+00 0.  1.
         21   -1    0    0  503  502 -0.00000000000E+00 -0.00000000000E+00 -0.20325719701E+03  0.20325719701E+03  0.00000000000E+00 0. -1.
         21    1    1    2  503  501  0.48094125755E+01 -0.19936250233E+02 -0.19568132038E+03  0.19675305250E+03  0.00000000000E+00 0. -1.
         21    1    1    2  504  502 -0.48094125755E+01  0.19936250233E+02  0.78954969227E+01  0.21975518068E+02  0.00000000000E+00 0.  1.
<mgrwt>
<rscale>  2 0.20508157E+02</rscale>
<asrwt>0</asrwt>
<pdfrwt beam="1">  1       21 0.23802112E-02 0.20508157E+02</pdfrwt>
<pdfrwt beam="2">  1       21 0.31270339E-01 0.20508157E+02</pdfrwt>
<totfact> 0.72643295E+06</totfact>
</mgrwt>
</event>
<event>
 4    1  0.4353697E+006  0.2005721E+02  0.7546771E-02  0.1744193E+00
         21   -1    0    0  503  501  0.00000000000E+00  0.00000000000E+00  0.46216253787E+03  0.46216253787E+03  0.00000000000E+00 0.  1.
         21   -1    0    0  504  502 -0.00000000000E+00 -0.00000000000E+00 -0.87610175075E+00  0.87610175075E+00  0.00000000000E+00 0.  1.
         21    1    1    2  503  502 -0.85816768350E+01  0.18128607890E+02  0.21205589667E+03  0.21300233547E+03  0.00000000000E+00 0.  1.
         21    1    1    2  504  501  0.85816768350E+01 -0.18128607890E+02  0.24923053945E+03  0.25003630416E+03  0.00000000000E+00 0.  1.
<mgrwt>
<rscale>  2 0.20057208E+02</rscale>
<asrwt>0</asrwt>
<pdfrwt beam="1">  1       21 0.71101734E-01 0.20057208E+02</pdfrwt>
<pdfrwt beam="2">  1       21 0.13478525E-03 0.20057208E+02</pdfrwt>
<totfact> 0.10314220E+08</totfact>
</mgrwt>
</event>
<event>
 4    1  0.4353697E+006  0.3188192E+02  0.7546771E-02  0.1578172E+00
         21   -1    0    0  502  501  0.00000000000E+00  0.00000000000E+00  0.44154465214E+03  0.44154465214E+03  0.00000000000E+00 0. -1.
         21   -1    0    0  504  502 -0.00000000000E+00 -0.00000000000E+00 -0.24562766935E+01  0.24562766935E+01  0.00000000000E+00 0. -1.
         21    1    1    2  503  501  0.99337214319E+01 -0.30294850695E+02  0.27517282401E+03  0.27701360955E+03  0.00000000000E+00 0. -1.
         21    1    1    2  504  503 -0.99337214319E+01  0.30294850695E+02  0.16391555144E+03  0.16698731929E+03  0.00000000000E+00 0. -1.
<mgrwt>
<rscale>  2 0.31881920E+02</rscale>
<asrwt>0</asrwt>
<pdfrwt beam="1">  1       21 0.67929883E-01 0.31881920E+02</pdfrwt>
<pdfrwt beam="2">  1       21 0.37788907E-03 0.31881920E+02</pdfrwt>
<totfact> 0.28053105E+07</totfact>
</mgrwt>
</event>
<event>
 4    1  0.4353697E+006  0.2182484E+02  0.7546771E-02  0.1711299E+00
         21   -1    0    0  503  501  0.00000000000E+00  0.00000000000E+00  0.48326892099E+02  0.48326892099E+02  0.00000000000E+00 0.  1.
         21   -1    0    0  504  502 -0.00000000000E+00 -0.00000000000E+00 -0.46640643258E+02  0.46640643258E+02  0.00000000000E+00 0.  1.
         21    1    1    2  503  502  0.14298457436E+01  0.21777955678E+02  0.43012238225E+02  0.48232524809E+02  0.00000000000E+00 0.  1.
         21    1    1    2  504  501 -0.14298457436E+01 -0.21777955678E+02 -0.41325989384E+02  0.46735010548E+02  0.00000000000E+00 0.  1.
<mgrwt>
<rscale>  2 0.21824844E+02</rscale>
<asrwt>0</asrwt>
<pdfrwt beam="1">  1       21 0.74349064E-02 0.21824844E+02</pdfrwt>
<pdfrwt beam="2">  1       21 0.71754836E-02 0.21824844E+02</pdfrwt>
<totfact> 0.15001744E+07</totfact>
</mgrwt>
</event>
<event>
 4    1  0.4353697E+006  0.5338946E+02  0.7546771E-02  0.1427872E+00
         21   -1    0    0  504  501  0.00000000000E+00  0.00000000000E+00  0.10462373122E+02  0.10462373122E+02  0.00000000000E+00 0.  1.
         21   -1    0    0  503  502 -0.00000000000E+00 -0.00000000000E+00 -0.27536551804E+03  0.27536551804E+03  0.00000000000E+00 0.  1.
         21    1    1    2  503  501  0.51413187690E+02  0.14391596362E+02 -0.11773659077E+03  0.12927621096E+03  0.00000000000E+00 0.  1.
         21    1    1    2  504  502 -0.51413187690E+02 -0.14391596362E+02 -0.14716655415E+03  0.15655168020E+03  0.00000000000E+00 0.  1.
<mgrwt>
<rscale>  2 0.53389455E+02</rscale>
<asrwt>0</asrwt>
<pdfrwt beam="1">  1       21 0.16095956E-02 0.53389455E+02</pdfrwt>
<pdfrwt beam="2">  1       21 0.42363933E-01 0.53389455E+02</pdfrwt>
<totfact> 0.85905372E+06</totfact>
</mgrwt>
</event>
<event>
 4    1  0.4353697E+006  0.2220274E+02  0.7546771E-02  0.1704769E+00
         21   -1    0    0  504  501  0.00000000000E+00  0.00000000000E+00  0.61745131778E+02  0.61745131778E+02  0.00000000000E+00 0. -1.
         21   -1    0    0  501  502 -0.00000000000E+00 -0.00000000000E+00 -0.25923291769E+02  0.25923291769E+02  0.00000000000E+00 0.  1.
         21    1    1    2  503  502 -0.21547024797E+02  0.53560664358E+01 -0.18553810684E+02  0.28934505632E+02  0.00000000000E+00 0.  1.
         21    1    1    2  504  503  0.21547024797E+02 -0.53560664358E+01  0.54375650693E+02  0.58733917914E+02  0.00000000000E+00 0. -1.
<mgrwt>
<rscale>  2 0.22202741E+02</rscale>
<asrwt>0</asrwt>
<pdfrwt beam="1">  1       21 0.94992510E-02 0.22202741E+02</pdfrwt>
<pdfrwt beam="2">  1       21 0.39881988E-02 0.22202741E+02</pdfrwt>
<totfact> 0.25750393E+07</totfact>
</mgrwt>
</event>
<event>
 4    1  0.4353697E+006  0.2236396E+02  0.7546771E-02  0.1702032E+00
         21   -1    0    0  503  501  0.00000000000E+00  0.00000000000E+00  0.36961387392E+01  0.36961387392E+01  0.00000000000E+00 0.  1.
         21   -1    0    0  504  502 -0.00000000000E+00 -0.00000000000E+00 -0.19459045167E+03  0.19459045167E+03  0.00000000000E+00 0.  1.
         21    1    1    2  503  502  0.12386147062E+02 -0.18620690720E+02 -0.40728388919E+02  0.46464485641E+02  0.00000000000E+00 0.  1.
         21    1    1    2  504  501 -0.12386147062E+02  0.18620690720E+02 -0.15016592401E+03  0.15182210477E+03  0.00000000000E+00 0.  1.
<mgrwt>
<rscale>  2 0.22363961E+02</rscale>
<asrwt>0</asrwt>
<pdfrwt beam="1">  1       21 0.56863678E-03 0.22363961E+02</pdfrwt>
<pdfrwt beam="2">  1       21 0.29936990E-01 0.22363961E+02</pdfrwt>
<totfact> 0.69186486E+07</totfact>
</mgrwt>
</event>
<event>
 4    1  0.4353697E+006  0.4558822E+02  0.7546771E-02  0.1470703E+00
         21   -1    0    0  503  501  0.00000000000E+00  0.00000000000E+00  0.85524584441E+01  0.85524584441E+01  0.00000000000E+00 0. -1.
         21   -1    0    0  504  502 -0.00000000000E+00 -0.00000000000E+00 -0.21717007521E+04  0.21717007521E+04  0.00000000000E+00 0.  1.
         21    1    1    2  503  502 -0.13831373462E+02 -0.43439373344E+02 -0.21089015300E+04  0.21093942138E+04  0.00000000000E+00 0.  1.
         21    1    1    2  504  501  0.13831373462E+02  0.43439373344E+02 -0.54246763607E+02  0.70858996678E+02  0.00000000000E+00 0. -1.
<mgrwt>
<rscale>  2 0.45588223E+02</rscale>
<asrwt>0</asrwt>
<pdfrwt beam="1">  1       21 0.13157620E-02 0.45588223E+02</pdfrwt>
<pdfrwt beam="2">  1       21 0.33410803E+00 0.45588223E+02</pdfrwt>
<totfact> 0.67657022E+04</totfact>
</mgrwt>
</event>
<event>
 4    1  0.4353697E+006  0.2037785E+02  0.7546771E-02  0.1737917E+00
         21   -1    0    0  504  501  0.00000000000E+00  0.00000000000E+00  0.10864057370E+02  0.10864057370E+02  0.00000000000E+00 0.  1.
         21   -1    0    0  501  502 -0.00000000000E+00 -0.00000000000E+00 -0.10546019395E+03  0.10546019395E+03  0.00000000000E+00 0. -1.
         21    1    1    2  503  502  0.18649582263E+02 -0.82127758325E+01 -0.93738992595E+02  0.95928386509E+02  0.00000000000E+00 0. -1.
         21    1    1    2  504  503 -0.18649582263E+02  0.82127758325E+01 -0.85714398134E+00  0.20395864808E+02  0.00000000000E+00 0.  1.
<mgrwt>
<rscale>  2 0.20377846E+02</rscale>
<asrwt>0</asrwt>
<pdfrwt beam="1">  1       21 0.16713934E-02 0.20377846E+02</pdfrwt>
<pdfrwt beam="2">  1       21 0.16224645E-01 0.20377846E+02</pdfrwt>
<totfact> 0.39435486E+07</totfact>
</mgrwt>
</event>
<event>
 4    1  0.4353697E+006  0.2525893E+02  0.7546771E-02  0.1657310E+00
         21   -1    0    0  504  501  0.00000000000E+00  0.00000000000E+00  0.41534695612E+01  0.41534695612E+01  0.00000000000E+00 0. -1.
         21   -1    0    0  501  502 -0.00000000000E+00 -0.00000000000E+00 -0.37110997167E+03  0.37110997167E+03  0.00000000000E+00 0.  1.
         21    1    1    2  503  502  0.13518941383E+02 -0.21336625001E+02 -0.32712136786E+03  0.32809511220E+03  0.00000000000E+00 0.  1.
         21    1    1    2  504  503 -0.13518941383E+02  0.21336625001E+02 -0.39835134255E+02  0.47168329032E+02  0.00000000000E+00 0. -1.
<mgrwt>
<rscale>  2 0.25258926E+02</rscale>
<asrwt>0</asrwt>
<pdfrwt beam="1">  1       21 0.63899527E-03 0.25258926E+02</pdfrwt>
<pdfrwt beam="2">  1       21 0.57093846E-01 0.25258926E+02</pdfrwt>
<totfact> 0.17558554E+07</totfact>
</mgrwt>
</event>
<event>
 4    1  0.4353697E+006  0.3356330E+02  0.7546771E-02  0.1561742E+00
         21   -1    0    0  503  501  0.00000000000E+00  0.00000000000E+00  0.14035208364E+03  0.14035208364E+03  0.00000000000E+00 0. -1.
         21   -1    0    0  504  502 -0.00000000000E+00 -0.00000000000E+00 -0.25297406874E+02  0.25297406874E+02  0.00000000000E+00 0. -1.
         21    1    1    2  503  502  0.27312168131E+01  0.33451984553E+02 -0.10908464443E+02  0.35291492067E+02  0.00000000000E+00 0. -1.
         21    1    1    2  504  501 -0.27312168131E+01 -0.33451984553E+02  0.12596314121E+03  0.13035799844E+03  0.00000000000E+00 0. -1.
<mgrwt>
<rscale>  2 0.33563296E+02</rscale>
<asrwt>0</asrwt>
<pdfrwt beam="1">  1       21 0.21592628E-01 0.33563296E+02</pdfrwt>
<pdfrwt beam="2">  1       21 0.38919088E-02 0.33563296E+02</pdfrwt>
<totfact> 0.70906249E+06</totfact>
</mgrwt>
</event>
<event>
 4    1  0.4353697E+006  0.2266335E+02  0.7546771E-02  0.1697026E+00
         21   -1    0    0  503  501  0.00000000000E+00  0.00000000000E+00  0.33045319124E+03  0.33045319124E+03  0.00000000000E+00 0. -1.
         21   -1    0    0  501  502 -0.00000000000E+00 -0.00000000000E+00 -0.33534284487E+01  0.33534284487E+01  0.00000000000E+00 0. -1.
         21    1    1    2  503  504 -0.20112099590E+02  0.10446576827E+02  0.28580020204E+03  0.28669737182E+03  0.00000000000E+00 0. -1.
         21    1    1    2  504  502  0.20112099590E+02 -0.10446576827E+02  0.41299560751E+02  0.47109247878E+02  0.00000000000E+00 0. -1.
<mgrwt>
<rscale>  2 0.22663352E+02</rscale>
<asrwt>0</asrwt>
<pdfrwt beam="1">  1       21 0.50838927E-01 0.22663352E+02</pdfrwt>
<pdfrwt beam="2">  1       21 0.51591233E-03 0.22663352E+02</pdfrwt>
<totfact> 0.29639725E+07</totfact>
</mgrwt>
</event>
<event>
 4    1  0.4353697E+006  0.2443935E+02  0.7546771E-02  0.1669188E+00
         21   -1    0    0  504  501  0.00000000000E+00  0.00000000000E+00  0.11976104225E+02  0.11976104225E+02  0.00000000000E+00 0. -1.
         21   -1    0    0  503  502 -0.00000000000E+00 -0.00000000000E+00 -0.21567164403E+03  0.21567164403E+03  0.00000000000E+00 0. -1.
         21    1    1    2  503  501 -0.23839245163E+02 -0.53826064094E+01 -0.20164708593E+03  0.20312269525E+03  0.00000000000E+00 0. -1.
         21    1    1    2  504  502  0.23839245163E+02  0.53826064094E+01 -0.20484538765E+01  0.24525053007E+02  0.00000000000E+00 0. -1.
<mgrwt>
<rscale>  2 0.24439355E+02</rscale>
<asrwt>0</asrwt>
<pdfrwt beam="1">  1       21 0.18424776E-02 0.24439355E+02</pdfrwt>
<pdfrwt beam="2">  1       21 0.33180252E-01 0.24439355E+02</pdfrwt>
<totfact> 0.99691378E+06</totfact>
</mgrwt>
</event>
<event>
 4    1  0.4353697E+006  0.2343807E+02  0.7546771E-02  0.1684506E+00
         21   -1    0    0  503  501  0.00000000000E+00  0.00000000000E+00  0.10120154210E+02  0.10120154210E+02  0.00000000000E+00 0. -1.
         21   -1    0    0  501  502 -0.00000000000E+00 -0.00000000000E+00 -0.16349099443E+03  0.16349099443E+03  0.00000000000E+00 0.  1.
         21    1    1    2  503  504  0.59318000819E+01 -0.22675024073E+02 -0.57391199074E+01  0.24130488314E+02  0.00000000000E+00 0. -1.
         21    1    1    2  504  502 -0.59318000819E+01  0.22675024073E+02 -0.14763172031E+03  0.14948066032E+03  0.00000000000E+00 0.  1.
<mgrwt>
<rscale>  2 0.23438067E+02</rscale>
<asrwt>0</asrwt>
<pdfrwt beam="1">  1       21 0.15569468E-02 0.23438067E+02</pdfrwt>
<pdfrwt beam="2">  1       21 0.25152460E-01 0.23438067E+02</pdfrwt>
<totfact> 0.21138315E+07</totfact>
</mgrwt>
</event>
<event>
 4    1  0.4353697E+006  0.3103440E+02  0.7546771E-02  0.1586928E+00
         21   -1    0    0  503  501  0.00000000000E+00  0.00000000000E+00  0.25413120105E+03  0.25413120105E+03  0.00000000000E+00 0.  1.
         21   -1    0    0  501  502 -0.00000000000E+00 -0.00000000000E+00 -0.27824712155E+02  0.27824712155E+02  0.00000000000E+00 0.  1.
         21    1    1    2  503  504 -0.29713827931E+02 -0.89567039181E+01  0.24417884424E+03  0.24614313334E+03  0.00000000000E+00 0.  1.
         21    1    1    2  504  502  0.29713827931E+02  0.89567039181E+01 -0.17872355352E+02  0.35812779859E+02  0.00000000000E+00 0.  1.
<mgrwt>
<rscale>  2 0.31034402E+02</rscale>
<asrwt>0</asrwt>
<pdfrwt beam="1">  1       21 0.39097106E-01 0.31034402E+02</pdfrwt>
<pdfrwt beam="2">  1       21 0.42807251E-02 0.31034402E+02</pdfrwt>
<totfact> 0.20248592E+06</totfact>
</mgrwt>
</event>
<event>
 4    1  0.4353697E+006  0.2018634E+02  0.7546771E-02  0.1741648E+00
         21   -1    0    0  504  501  0.00000000000E+00  0.00000000000E+00  0.22121696930E+02  0.22121696930E+02  0.00000000000E+00 0. -1.
         21   -1    0    0  503  502 -0.00000000000E+00 -0.00000000000E+00 -0.20082566739E+02  0.20082566739E+02  0.00000000000E+00 0. -1.
         21    1    1    2  503  501  0.19871161271E+02 -0.35532054498E+01  0.70906587281E+01  0.21395461210E+02  0.00000000000E+00 0. -1.
         21    1    1    2  504  502 -0.19871161271E+02  0.35532054498E+01 -0.50515285373E+01  0.20808802459E+02  0.00000000000E+00 0. -1.
<mgrwt>
<rscale>  2 0.20186340E+02</rscale>
<asrwt>0</asrwt>
<pdfrwt beam="1">  1       21 0.34033380E-02 0.20186340E+02</pdfrwt>
<pdfrwt beam="2">  1       21 0.30896257E-02 0.20186340E+02</pdfrwt>
<totfact> 0.19269231E+08</totfact>
</mgrwt>
</event>
<event>
 4    1  0.4353697E+006  0.2037643E+02  0.7546771E-02  0.1737944E+00
         21   -1    0    0  502  501  0.00000000000E+00  0.00000000000E+00  0.80660784742E+01  0.80660784742E+01  0.00000000000E+00 0. -1.
         21   -1    0    0  504  502 -0.00000000000E+00 -0.00000000000E+00 -0.21334634283E+03  0.21334634283E+03  0.00000000000E+00 0.  1.
         21    1    1    2  503  501 -0.86447044443E+01 -0.18451777399E+02 -0.62095550971E+01  0.21301586293E+02  0.00000000000E+00 0. -1.
         21    1    1    2  504  503  0.86447044443E+01  0.18451777399E+02 -0.19907070925E+03  0.20011083501E+03  0.00000000000E+00 0.  1.
<mgrwt>
<rscale>  2 0.20376433E+02</rscale>
<asrwt>0</asrwt>
<pdfrwt beam="1">  1       21 0.12409354E-02 0.20376433E+02</pdfrwt>
<pdfrwt beam="2">  1       21 0.32822509E-01 0.20376433E+02</pdfrwt>
<totfact> 0.17876722E+07</totfact>
</mgrwt>
</event>
<event>
 4    1  0.4353697E+006  0.2201802E+02  0.7546771E-02  0.1707941E+00
         21   -1    0    0  504  501  0.00000000000E+00  0.00000000000E+00  0.49485136928E+01  0.49485136928E+01  0.00000000000E+00 0.  1.
         21   -1    0    0  503  502 -0.00000000000E+00 -0.00000000000E+00 -0.23749586940E+03  0.23749586940E+03  0.00000000000E+00 0. -1.
         21    1    1    2  503  501  0.16267913682E+02  0.14837388116E+02 -0.23358750768E+02  0.32100223350E+02  0.00000000000E+00 0.  1.
         21    1    1    2  504  502 -0.16267913682E+02 -0.14837388116E+02 -0.20918860494E+03  0.21034415974E+03  0.00000000000E+00 0. -1.
<mgrwt>
<rscale>  2 0.22018018E+02</rscale>
<asrwt>0</asrwt>
<pdfrwt beam="1">  1       21 0.76130978E-03 0.22018018E+02</pdfrwt>
<pdfrwt beam="2">  1       21 0.36537827E-01 0.22018018E+02</pdfrwt>
<totfact> 0.31005296E+07</totfact>
</mgrwt>
</event>
<event>
 4    1  0.4353697E+006  0.2375858E+02  0.7546771E-02  0.1679501E+00
         21   -1    0    0  504  501  0.00000000000E+00  0.00000000000E+00  0.28594627208E+03  0.28594627208E+03  0.00000000000E+00 0.  1.
         21   -1    0    0  503  502 -0.00000000000E+00 -0.00000000000E+00 -0.41853139159E+01  0.41853139159E+01  0.00000000000E+00 0. -1.
         21    1    1    2  503  501  0.23680994307E+02 -0.19184751371E+01  0.35436437725E+02  0.42663932740E+02  0.00000000000E+00 0. -1.
         21    1    1    2  504  502 -0.23680994307E+02  0.19184751371E+01  0.24632452044E+03  0.24746765326E+03  0.00000000000E+00 0.  1.
<mgrwt>
<rscale>  2 0.23758578E+02</rscale>
<asrwt>0</asrwt>
<pdfrwt beam="1">  1       21 0.43991719E-01 0.23758578E+02</pdfrwt>
<pdfrwt beam="2">  1       21 0.64389467E-03 0.23758578E+02</pdfrwt>
<totfact> 0.28513790E+07</totfact>
</mgrwt>
</event>
<event>
 4    1  0.4353697E+006  0.2538934E+02  0.7546771E-02  0.1655472E+00
         21   -1    0    0  503  501  0.00000000000E+00  0.00000000000E+00  0.16790508670E+03  0.16790508670E+03  0.00000000000E+00 0. -1.
         21   -1    0    0  501  502 -0.00000000000E+00 -0.00000000000E+00 -0.45232703387E+01  0.45232703387E+01  0.00000000000E+00 0. -1.
         21    1    1    2  503  504  0.15214307052E+02 -0.20325928665E+02  0.11521892723E+03  0.11798313315E+03  0.00000000000E+00 0. -1.
         21    1    1    2  504  502 -0.15214307052E+02  0.20325928665E+02  0.48162889133E+02  0.54445223893E+02  0.00000000000E+00 0. -1.
<mgrwt>
<rscale>  2 0.25389339E+02</rscale>
<asrwt>0</asrwt>
<pdfrwt beam="1">  1       21 0.25831547E-01 0.25389339E+02</pdfrwt>
<pdfrwt beam="2">  1       21 0.69588787E-03 0.25389339E+02</pdfrwt>
<totfact> 0.69079634E+07</totfact>
</mgrwt>
</event>
<event>
 4    1  0.4353697E+006  0.2418559E+02  0.7546771E-02  0.1672983E+00
         21   -1    0    0  503  501  0.00000000000E+00  0.00000000000E+00  0.10993754071E+02  0.10993754071E+02  0.00000000000E+00 0.  1.
         21   -1    0    0  501  502 -0.00000000000E+00 -0.00000000000E+00 -0.11027731006E+03  0.11027731006E+03  0.00000000000E+00 0.  1.
         21    1    1    2  503  504  0.11256456587E+02 -0.21406425105E+02 -0.60213565319E+01  0.24923875805E+02  0.00000000000E+00 0.  1.
         21    1    1    2  504  502 -0.11256456587E+02  0.21406425105E+02 -0.93262199457E+02  0.96347188326E+02  0.00000000000E+00 0.  1.
<mgrwt>
<rscale>  2 0.24185592E+02</rscale>
<asrwt>0</asrwt>
<pdfrwt beam="1">  1       21 0.16913469E-02 0.24185592E+02</pdfrwt>
<pdfrwt beam="2">  1       21 0.16965739E-01 0.24185592E+02</pdfrwt>
<totfact> 0.37423686E+07</totfact>
</mgrwt>
</event>
<event>
 4    1  0.4353697E+006  0.2128276E+02  0.7546771E-02  0.1720960E+00
         21   -1    0    0  503  501  0.00000000000E+00  0.00000000000E+00  0.58993590235E+02  0.58993590235E+02  0.00000000000E+00 0. -1.
         21   -1    0    0  504  502 -0.00000000000E+00 -0.00000000000E+00 -0.76781132566E+01  0.76781132566E+01  0.00000000000E+00 0. -1.
         21    1    1    2  503  502 -0.20030030401E+02 -0.71940103463E+01  0.25751253706E+02  0.33407827977E+02  0.00000000000E+00 0. -1.
         21    1    1    2  504  501  0.20030030401E+02  0.71940103463E+01  0.25564223272E+02  0.33263875514E+02  0.00000000000E+00 0. -1.
<mgrwt>
<rscale>  2 0.21282761E+02</rscale>
<asrwt>0</asrwt>
<pdfrwt beam="1">  1       21 0.90759367E-02 0.21282761E+02</pdfrwt>
<pdfrwt beam="2">  1       21 0.11812482E-02 0.21282761E+02</pdfrwt>
<totfact> 0.17794627E+08</totfact>
</mgrwt>
</event>
<event>
 4    1  0.4353697E+006  0.2560706E+02  0.7546771E-02  0.1652432E+00
         21   -1    0    0  502  501  0.00000000000E+00  0.00000000000E+00  0.56889079469E+03  0.56889079469E+03  0.00000000000E+00 0.  1.
         21   -1    0    0  503  502 -0.00000000000E+00 -0.00000000000E+00 -0.55638537836E+01  0.55638537836E+01  0.00000000000E+00 0.  1.
         21    1    1    2  503  504  0.12042164732E+02  0.22598850433E+02  0.25912469758E+02  0.36430452389E+02  0.00000000000E+00 0.  1.
         21    1    1    2  504  501 -0.12042164732E+02 -0.22598850433E+02  0.53741447115E+03  0.53802419609E+03  0.00000000000E+00 0.  1.
<mgrwt>
<rscale>  2 0.25607065E+02</rscale>
<asrwt>0</asrwt>
<pdfrwt beam="1">  1       21 0.87521615E-01 0.25607065E+02</pdfrwt>
<pdfrwt beam="2">  1       21 0.85597795E-03 0.25607065E+02</pdfrwt>
<totfact> 0.47066696E+06</totfact>
</mgrwt>
</event>
<event>
 4    1  0.4353697E+006  0.2200952E+02  0.7546771E-02  0.1708087E+00
         21   -1    0    0  504  501  0.00000000000E+00  0.00000000000E+00  0.49403946811E+01  0.49403946811E+01  0.00000000000E+00 0.  1.
         21   -1    0    0  503  502 -0.00000000000E+00 -0.00000000000E+00 -0.28663094859E+03  0.28663094859E+03  0.00000000000E+00 0. -1.
         21    1    1    2  503  501  0.19125373604E+02  0.10892162415E+02 -0.22595839918E+02  0.31543479503E+02  0.00000000000E+00 0.  1.
         21    1    1    2  504  502 -0.19125373604E+02 -0.10892162415E+02 -0.25909471400E+03  0.26002786377E+03  0.00000000000E+00 0. -1.
<mgrwt>
<rscale>  2 0.22009523E+02</rscale>
<asrwt>0</asrwt>
<pdfrwt beam="1">  1       21 0.76006081E-03 0.22009523E+02</pdfrwt>
<pdfrwt beam="2">  1       21 0.44097064E-01 0.22009523E+02</pdfrwt>
<totfact> 0.21816699E+07</totfact>
</mgrwt>
</event>
<event>
 4    1  0.4353697E+006  0.7892310E+02  0.7546771E-02  0.1332136E+00
         21   -1    0    0  503  501  0.00000000000E+00  0.00000000000E+00  0.71469195356E+03  0.71469195356E+03  0.00000000000E+00 0.  1.
         21   -1    0    0  504  502 -0.00000000000E+00 -0.00000000000E+00 -0.14682879022E+03  0.14682879022E+03  0.00000000000E+00 0.  1.
         21    1    1    2  503  502  0.54422618289E+02 -0.57157975255E+02  0.70171188564E+03  0.70613626587E+03  0.00000000000E+00 0.  1.
         21    1    1    2  504  501 -0.54422618289E+02  0.57157975255E+02 -0.13384872230E+03  0.15538447792E+03  0.00000000000E+00 0.  1.
<mgrwt>
<rscale>  2 0.78923099E+02</rscale>
<asrwt>0</asrwt>
<pdfrwt beam="1">  1       21 0.10995261E+00 0.78923099E+02</pdfrwt>
<pdfrwt beam="2">  1       21 0.22589045E-01 0.78923099E+02</pdfrwt>
<totfact> 0.13321857E+04</totfact>
</mgrwt>
</event>
<event>
 4    1  0.4353697E+006  0.3178297E+02  0.7546771E-02  0.1579177E+00
         21   -1    0    0  504  501  0.00000000000E+00  0.00000000000E+00  0.20769044212E+03  0.20769044212E+03  0.00000000000E+00 0. -1.
         21   -1    0    0  503  502 -0.00000000000E+00 -0.00000000000E+00 -0.62655764324E+01  0.62655764324E+01  0.00000000000E+00 0.  1.
         21    1    1    2  503  501 -0.22115961111E+01 -0.31705930123E+02  0.15131342693E+03  0.15461536253E+03  0.00000000000E+00 0. -1.
         21    1    1    2  504  502  0.22115961111E+01  0.31705930123E+02  0.50111438760E+02  0.59340656020E+02  0.00000000000E+00 0.  1.
<mgrwt>
<rscale>  2 0.31782970E+02</rscale>
<asrwt>0</asrwt>
<pdfrwt beam="1">  1       21 0.31952370E-01 0.31782970E+02</pdfrwt>
<pdfrwt beam="2">  1       21 0.96393499E-03 0.31782970E+02</pdfrwt>
<totfact> 0.30107430E+07</totfact>
</mgrwt>
</event>
<event>
 4    1  0.4353697E+006  0.2553250E+02  0.7546771E-02  0.1653469E+00
         21   -1    0    0  504  501  0.00000000000E+00  0.00000000000E+00  0.20400303825E+02  0.20400303825E+02  0.00000000000E+00 0.  1.
         21   -1    0    0  501  502 -0.00000000000E+00 -0.00000000000E+00 -0.31207229542E+03  0.31207229542E+03  0.00000000000E+00 0. -1.
         21    1    1    2  503  502 -0.26356393997E+01 -0.25396100308E+02 -0.30333128901E+03  0.30440397402E+03  0.00000000000E+00 0. -1.
         21    1    1    2  504  503  0.26356393997E+01  0.25396100308E+02  0.11659297415E+02  0.28068625227E+02  0.00000000000E+00 0.  1.
<mgrwt>
<rscale>  2 0.25532499E+02</rscale>
<asrwt>0</asrwt>
<pdfrwt beam="1">  1       21 0.31385083E-02 0.25532499E+02</pdfrwt>
<pdfrwt beam="2">  1       21 0.48011122E-01 0.25532499E+02</pdfrwt>
<totfact> 0.21849845E+06</totfact>
</mgrwt>
</event>
<event>
 4    1  0.4353697E+006  0.2088148E+02  0.7546771E-02  0.1728346E+00
         21   -1    0    0  504  501  0.00000000000E+00  0.00000000000E+00  0.75644108714E+01  0.75644108714E+01  0.00000000000E+00 0.  1.
         21   -1    0    0  503  502 -0.00000000000E+00 -0.00000000000E+00 -0.82626067423E+02  0.82626067423E+02  0.00000000000E+00 0. -1.
         21    1    1    2  503  501  0.12133122558E+02 -0.16994806116E+02 -0.12734112893E+02  0.24457999287E+02  0.00000000000E+00 0.  1.
         21    1    1    2  504  502 -0.12133122558E+02  0.16994806116E+02 -0.62327543659E+02  0.65732479008E+02  0.00000000000E+00 0. -1.
<mgrwt>
<rscale>  2 0.20881477E+02</rscale>
<asrwt>0</asrwt>
<pdfrwt beam="1">  1       21 0.11637555E-02 0.20881477E+02</pdfrwt>
<pdfrwt beam="2">  1       21 0.12711703E-01 0.20881477E+02</pdfrwt>
<totfact> 0.10357433E+08</totfact>
</mgrwt>
</event>
<event>
 4    1  0.4353697E+006  0.2621460E+02  0.7546771E-02  0.1644145E+00
         21   -1    0    0  503  501  0.00000000000E+00  0.00000000000E+00  0.20278388574E+03  0.20278388574E+03  0.00000000000E+00 0. -1.
         21   -1    0    0  501  502 -0.00000000000E+00 -0.00000000000E+00 -0.11364341495E+02  0.11364341495E+02  0.00000000000E+00 0. -1.
         21    1    1    2  503  504  0.23430445982E+02  0.11756669498E+02  0.18540946511E+03  0.18725350419E+03  0.00000000000E+00 0. -1.
         21    1    1    2  504  502 -0.23430445982E+02 -0.11756669498E+02  0.60100791302E+01  0.26894723046E+02  0.00000000000E+00 0. -1.
<mgrwt>
<rscale>  2 0.26214597E+02</rscale>
<asrwt>0</asrwt>
<pdfrwt beam="1">  1       21 0.31197518E-01 0.26214597E+02</pdfrwt>
<pdfrwt beam="2">  1       21 0.17483604E-02 0.26214597E+02</pdfrwt>
<totfact> 0.12250006E+07</totfact>
</mgrwt>
</event>
<event>
 4    1  0.4353697E+006  0.2455060E+02  0.7546771E-02  0.1667542E+00
         21   -1    0    0  503  501  0.00000000000E+00  0.00000000000E+00  0.11997191946E+03  0.11997191946E+03  0.00000000000E+00 0.  1.
         21   -1    0    0  504  502 -0.00000000000E+00 -0.00000000000E+00 -0.59679528675E+02  0.59679528675E+02  0.00000000000E+00 0. -1.
         21    1    1    2  503  502 -0.24707969464E+01  0.24425951773E+02  0.11610795857E+03  0.11867514483E+03  0.00000000000E+00 0.  1.
         21    1    1    2  504  501  0.24707969464E+01 -0.24425951773E+02 -0.55815567784E+02  0.60976303304E+02  0.00000000000E+00 0. -1.
<mgrwt>
<rscale>  2 0.24550600E+02</rscale>
<asrwt>0</asrwt>
<pdfrwt beam="1">  1       21 0.18457218E-01 0.24550600E+02</pdfrwt>
<pdfrwt beam="2">  1       21 0.91814660E-02 0.24550600E+02</pdfrwt>
<totfact> 0.22327353E+06</totfact>
</mgrwt>
</event>
<event>
 4    1  0.4353697E+006  0.2269895E+02  0.7546771E-02  0.1696437E+00
         21   -1    0    0  504  501  0.00000000000E+00  0.00000000000E+00  0.25133550043E+03  0.25133550043E+03  0.00000000000E+00 0.  1.
         21   -1    0    0  503  502 -0.00000000000E+00 -0.00000000000E+00 -0.20646949332E+01  0.20646949332E+01  0.00000000000E+00 0. -1.
         21    1    1    2  503  501 -0.22245253140E+02 -0.45156226516E+01  0.11395281769E+03  0.11619159520E+03  0.00000000000E+00 0. -1.
         21    1    1    2  504  502  0.22245253140E+02  0.45156226516E+01  0.13531798781E+03  0.13720860017E+03  0.00000000000E+00 0.  1.
<mgrwt>
<rscale>  2 0.22698946E+02</rscale>
<asrwt>0</asrwt>
<pdfrwt beam="1">  1       21 0.38666976E-01 0.22698946E+02</pdfrwt>
<pdfrwt beam="2">  1       21 0.31764557E-03 0.22698946E+02</pdfrwt>
<totfact> 0.10186083E+08</totfact>
</mgrwt>
</event>
<event>
 4    1  0.4353697E+006  0.2319533E+02  0.7546771E-02  0.1688363E+00
         21   -1    0    0  504  501  0.00000000000E+00  0.00000000000E+00  0.60604374956E+02  0.60604374956E+02  0.00000000000E+00 0.  1.
         21   -1    0    0  501  502 -0.00000000000E+00 -0.00000000000E+00 -0.15185901588E+02  0.15185901588E+02  0.00000000000E+00 0. -1.
         21    1    1    2  503  502  0.71399999842E+01  0.22069068568E+02 -0.17148481761E+01  0.23258634773E+02  0.00000000000E+00 0. -1.
         21    1    1    2  504  503 -0.71399999842E+01 -0.22069068568E+02  0.47133321544E+02  0.52531641770E+02  0.00000000000E+00 0.  1.
<mgrwt>
<rscale>  2 0.23195331E+02</rscale>
<asrwt>0</asrwt>
<pdfrwt beam="1">  1       21 0.93237499E-02 0.23195331E+02</pdfrwt>
<pdfrwt beam="2">  1       21 0.23362926E-02 0.23195331E+02</pdfrwt>
<totfact> 0.61757013E+07</totfact>
</mgrwt>
</event>
<event>
 4    1  0.4353697E+006  0.3082064E+02  0.7546771E-02  0.1589191E+00
         21   -1    0    0  502  501  0.00000000000E+00  0.00000000000E+00  0.56161308077E+02  0.56161308077E+02  0.00000000000E+00 0.  1.
         21   -1    0    0  504  502 -0.00000000000E+00 -0.00000000000E+00 -0.11908424883E+03  0.11908424883E+03  0.00000000000E+00 0.  1.
         21    1    1    2  503  501 -0.30803787324E+02 -0.10191171529E+01  0.49700410332E+02  0.58481131148E+02  0.00000000000E+00 0.  1.
         21    1    1    2  504  503  0.30803787324E+02  0.10191171529E+01 -0.11262335109E+03  0.11676442576E+03  0.00000000000E+00 0.  1.
<mgrwt>
<rscale>  2 0.30820641E+02</rscale>
<asrwt>0</asrwt>
<pdfrwt beam="1">  1       21 0.86402013E-02 0.30820641E+02</pdfrwt>
<pdfrwt beam="2">  1       21 0.18320654E-01 0.30820641E+02</pdfrwt>
<totfact> 0.25671031E+06</totfact>
</mgrwt>
</event>
<event>
 4    1  0.4353697E+006  0.2046368E+02  0.7546771E-02  0.1736261E+00
         21   -1    0    0  502  501  0.00000000000E+00  0.00000000000E+00  0.17635117348E+03  0.17635117348E+03  0.00000000000E+00 0. -1.
         21   -1    0    0  504  502 -0.00000000000E+00 -0.00000000000E+00 -0.27992593797E+01  0.27992593797E+01  0.00000000000E+00 0. -1.
         21    1    1    2  503  501  0.31472262089E+01  0.20220216426E+02  0.12166511261E+03  0.12337407269E+03  0.00000000000E+00 0. -1.
         21    1    1    2  504  503 -0.31472262089E+01 -0.20220216426E+02  0.51886801486E+02  0.55776360168E+02  0.00000000000E+00 0. -1.
<mgrwt>
<rscale>  2 0.20463680E+02</rscale>
<asrwt>0</asrwt>
<pdfrwt beam="1">  1       21 0.27130941E-01 0.20463680E+02</pdfrwt>
<pdfrwt beam="2">  1       21 0.43065543E-03 0.20463680E+02</pdfrwt>
<totfact> 0.12136347E+08</totfact>
</mgrwt>
</event>
<event>
 4    1  0.4353697E+006  0.2406771E+02  0.7546771E-02  0.1674765E+00
         21   -1    0    0  503  501  0.00000000000E+00  0.00000000000E+00  0.22095917323E+03  0.22095917323E+03  0.00000000000E+00 0.  1.
         21   -1    0    0  504  502 -0.00000000000E+00 -0.00000000000E+00 -0.28100035323E+01  0.28100035323E+01  0.00000000000E+00 0. -1.
         21    1    1    2  503  502 -0.22756385774E+02  0.78359026321E+01  0.13804965451E+03  0.14013194344E+03  0.00000000000E+00 0.  1.
         21    1    1    2  504  501  0.22756385774E+02 -0.78359026321E+01  0.80099515193E+02  0.83637233322E+02  0.00000000000E+00 0. -1.
<mgrwt>
<rscale>  2 0.24067706E+02</rscale>
<asrwt>0</asrwt>
<pdfrwt beam="1">  1       21 0.33993705E-01 0.24067706E+02</pdfrwt>
<pdfrwt beam="2">  1       21 0.43230841E-03 0.24067706E+02</pdfrwt>
<totfact> 0.83695930E+07</totfact>
</mgrwt>
</event>
<event>
 4    1  0.4353697E+006  0.2875076E+02  0.7546771E-02  0.1612322E+00
         21   -1    0    0  503  501  0.00000000000E+00  0.00000000000E+00  0.35699590905E+02  0.35699590905E+02  0.00000000000E+00 0.  1.
         21   -1    0    0  501  502 -0.00000000000E+00 -0.00000000000E+00 -0.76815139366E+03  0.76815139366E+03  0.00000000000E+00 0. -1.
         21    1    1    2  503  504  0.24409189578E+02 -0.15192025572E+02  0.29595591011E+02  0.41261424892E+02  0.00000000000E+00 0.  1.
         21    1    1    2  504  502 -0.24409189578E+02  0.15192025572E+02 -0.76204739377E+03  0.76258955968E+03  0.00000000000E+00 0. -1.
<mgrwt>
<rscale>  2 0.28750760E+02</rscale>
<asrwt>0</asrwt>
<pdfrwt beam="1">  1       21 0.54922452E-02 0.28750760E+02</pdfrwt>
<pdfrwt beam="2">  1       21 0.11817713E+00 0.28750760E+02</pdfrwt>
<totfact> 0.13659988E+05</totfact>
</mgrwt>
</event>
<event>
 4    1  0.4353697E+006  0.4240050E+02  0.7546771E-02  0.1491254E+00
         21   -1    0    0  504  501  0.00000000000E+00  0.00000000000E+00  0.54838385644E+02  0.54838385644E+02  0.00000000000E+00 0. -1.
         21   -1    0    0  503  502 -0.00000000000E+00 -0.00000000000E+00 -0.36501495469E+02  0.36501495469E+02  0.00000000000E+00 0. -1.
         21    1    1    2  503  501 -0.12147335311E+02  0.40623205637E+02  0.23743849884E+02  0.48596018342E+02  0.00000000000E+00 0. -1.
         21    1    1    2  504  502  0.12147335311E+02 -0.40623205637E+02 -0.54069597090E+01  0.42743862772E+02  0.00000000000E+00 0. -1.
<mgrwt>
<rscale>  2 0.42400502E+02</rscale>
<asrwt>0</asrwt>
<pdfrwt beam="1">  1       21 0.84366747E-02 0.42400502E+02</pdfrwt>
<pdfrwt beam="2">  1       21 0.56156147E-02 0.42400502E+02</pdfrwt>
<totfact> 0.20520003E+07</totfact>
</mgrwt>
</event>
<event>
 4    1  0.4353697E+006  0.2911532E+02  0.7546771E-02  0.1608079E+00
         21   -1    0    0  503  501  0.00000000000E+00  0.00000000000E+00  0.77717084337E+03  0.77717084337E+03  0.00000000000E+00 0.  1.
         21   -1    0    0  504  502 -0.00000000000E+00 -0.00000000000E+00 -0.12847737174E+01  0.12847737174E+01  0.00000000000E+00 0.  1.
         21    1    1    2  503  502 -0.29085026822E+02  0.13277364783E+01  0.23668646548E+03  0.23847051099E+03  0.00000000000E+00 0.  1.
         21    1    1    2  504  501  0.29085026822E+02 -0.13277364783E+01  0.53919960416E+03  0.53998510609E+03  0.00000000000E+00 0.  1.
<mgrwt>
<rscale>  2 0.29115317E+02</rscale>
<asrwt>0</asrwt>
<pdfrwt beam="1">  1       21 0.11956437E+00 0.29115317E+02</pdfrwt>
<pdfrwt beam="2">  1       21 0.19765812E-03 0.29115317E+02</pdfrwt>
<totfact> 0.20931476E+07</totfact>
</mgrwt>
</event>
<event>
 4    1  0.4353697E+006  0.2961334E+02  0.7546771E-02  0.1602402E+00
         21   -1    0    0  503  501  0.00000000000E+00  0.00000000000E+00  0.53290185978E+03  0.53290185978E+03  0.00000000000E+00 0. -1.
         21   -1    0    0  504  502 -0.00000000000E+00 -0.00000000000E+00 -0.18171294805E+02  0.18171294805E+02  0.00000000000E+00 0. -1.
         21    1    1    2  503  502  0.28323421967E+02 -0.86448728794E+01  0.52012937632E+03  0.52097170573E+03  0.00000000000E+00 0. -1.
         21    1    1    2  504  501 -0.28323421967E+02  0.86448728794E+01 -0.53988113485E+01  0.30101448852E+02  0.00000000000E+00 0. -1.
<mgrwt>
<rscale>  2 0.29613343E+02</rscale>
<asrwt>0</asrwt>
<pdfrwt beam="1">  1       21 0.81984890E-01 0.29613343E+02</pdfrwt>
<pdfrwt beam="2">  1       21 0.27955842E-02 0.29613343E+02</pdfrwt>
<totfact> 0.89515792E+05</totfact>
</mgrwt>
</event>
<event>
 4    1  0.4353697E+006  0.2790618E+02  0.7546771E-02  0.1622457E+00
         21   -1    0    0  503  501  0.00000000000E+00  0.00000000000E+00  0.21263008298E+03  0.21263008298E+03  0.00000000000E+00 0.  1.
         21   -1    0    0  504  502 -0.00000000000E+00 -0.00000000000E+00 -0.68032425682E+01  0.68032425682E+01  0.00000000000E+00 0. -1.
         21    1    1    2  503  502  0.46176033024E+01  0.27521491075E+02  0.28366150816E+02  0.39791874087E+02  0.00000000000E+00 0. -1.
         21    1    1    2  504  501 -0.46176033024E+01 -0.27521491075E+02  0.17746068960E+03  0.17964145146E+03  0.00000000000E+00 0.  1.
<mgrwt>
<rscale>  2 0.27906177E+02</rscale>
<asrwt>0</asrwt>
<pdfrwt beam="1">  1       21 0.32712315E-01 0.27906177E+02</pdfrwt>
<pdfrwt beam="2">  1       21 0.10466529E-02 0.27906177E+02</pdfrwt>
<totfact> 0.24820827E+07</totfact>
</mgrwt>
</event>
<event>
 4    1  0.4353697E+006  0.2136004E+02  0.7546771E-02  0.1719561E+00
         21   -1    0    0  503  501  0.00000000000E+00  0.00000000000E+00  0.18504243862E+02  0.18504243862E+02  0.00000000000E+00 0.  1.
         21   -1    0    0  504  502 -0.00000000000E+00 -0.00000000000E+00 -0.80308716881E+02  0.80308716881E+02  0.00000000000E+00 0.  1.
         21    1    1    2  503  502 -0.96285724288E+01 -0.19066778959E+02  0.10226320706E+02  0.23681830632E+02  0.00000000000E+00 0.  1.
         21    1    1    2  504  501  0.96285724288E+01  0.19066778959E+02 -0.72030793726E+02  0.75131130111E+02  0.00000000000E+00 0.  1.
<mgrwt>
<rscale>  2 0.21360044E+02</rscale>
<asrwt>0</asrwt>
<pdfrwt beam="1">  1       21 0.28468067E-02 0.21360044E+02</pdfrwt>
<pdfrwt beam="2">  1       21 0.12355187E-01 0.21360044E+02</pdfrwt>
<totfact> 0.27925139E+07</totfact>
</mgrwt>
</event>
<event>
 4    1  0.4353697E+006  0.2113130E+02  0.7546771E-02  0.1723724E+00
         21   -1    0    0  503  501  0.00000000000E+00  0.00000000000E+00  0.87487093809E+01  0.87487093809E+01  0.00000000000E+00 0.  1.
         21   -1    0    0  504  502 -0.00000000000E+00 -0.00000000000E+00 -0.52756203023E+02  0.52756203023E+02  0.00000000000E+00 0.  1.
         21    1    1    2  503  502  0.12383771836E+02 -0.17122320824E+02 -0.27550806350E+02  0.34721443026E+02  0.00000000000E+00 0.  1.
         21    1    1    2  504  501 -0.12383771836E+02  0.17122320824E+02 -0.16456687293E+02  0.26783469378E+02  0.00000000000E+00 0.  1.
<mgrwt>
<rscale>  2 0.21131296E+02</rscale>
<asrwt>0</asrwt>
<pdfrwt beam="1">  1       21 0.13459553E-02 0.21131296E+02</pdfrwt>
<pdfrwt beam="2">  1       21 0.81163391E-02 0.21131296E+02</pdfrwt>
<totfact> 0.17502696E+08</totfact>
</mgrwt>
</event>
<event>
 4    1  0.4353697E+006  0.2233028E+02  0.7546771E-02  0.1702602E+00
         21   -1    0    0  503  501  0.00000000000E+00  0.00000000000E+00  0.10009587285E+02  0.10009587285E+02  0.00000000000E+00 0.  1.
         21   -1    0    0  501  502 -0.00000000000E+00 -0.00000000000E+00 -0.72974920150E+02  0.72974920150E+02  0.00000000000E+00 0.  1.
         21    1    1    2  503  504 -0.89876942312E+01 -0.20441696282E+02 -0.81085274694E+01  0.23756889784E+02  0.00000000000E+00 0.  1.
         21    1    1    2  504  502  0.89876942312E+01  0.20441696282E+02 -0.54856805395E+02  0.59227617651E+02  0.00000000000E+00 0.  1.
<mgrwt>
<rscale>  2 0.22330284E+02</rscale>
<asrwt>0</asrwt>
<pdfrwt beam="1">  1       21 0.15399365E-02 0.22330284E+02</pdfrwt>
<pdfrwt beam="2">  1       21 0.11226911E-01 0.22330284E+02</pdfrwt>
<totfact> 0.85067526E+07</totfact>
</mgrwt>
</event>
<event>
 4    1  0.4353697E+006  0.2010181E+02  0.7546771E-02  0.1743311E+00
         21   -1    0    0  503  501  0.00000000000E+00  0.00000000000E+00  0.38704167261E+03  0.38704167261E+03  0.00000000000E+00 0. -1.
         21   -1    0    0  504  502 -0.00000000000E+00 -0.00000000000E+00 -0.14429187310E+02  0.14429187310E+02  0.00000000000E+00 0. -1.
         21    1    1    2  503  502  0.19762897105E+02 -0.36756717180E+01  0.37964318941E+03  0.38017500435E+03  0.00000000000E+00 0. -1.
         21    1    1    2  504  501 -0.19762897105E+02  0.36756717180E+01 -0.70307041057E+01  0.21295855577E+02  0.00000000000E+00 0. -1.
<mgrwt>
<rscale>  2 0.20101807E+02</rscale>
<asrwt>0</asrwt>
<pdfrwt beam="1">  1       21 0.59544865E-01 0.20101807E+02</pdfrwt>
<pdfrwt beam="2">  1       21 0.22198753E-02 0.20101807E+02</pdfrwt>
<totfact> 0.23767967E+06</totfact>
</mgrwt>
</event>
<event>
 4    1  0.4353697E+006  0.2210103E+02  0.7546771E-02  0.1706511E+00
         21   -1    0    0  502  501  0.00000000000E+00  0.00000000000E+00  0.11265357634E+03  0.11265357634E+03  0.00000000000E+00 0. -1.
         21   -1    0    0  503  502 -0.00000000000E+00 -0.00000000000E+00 -0.51087707788E+01  0.51087707788E+01  0.00000000000E+00 0. -1.
         21    1    1    2  503  504  0.20780073426E+02 -0.75262199126E+01  0.30870598070E+02  0.37966422836E+02  0.00000000000E+00 0. -1.
         21    1    1    2  504  501 -0.20780073426E+02  0.75262199126E+01  0.76674207495E+02  0.79795924286E+02  0.00000000000E+00 0. -1.
<mgrwt>
<rscale>  2 0.22101028E+02</rscale>
<asrwt>0</asrwt>
<pdfrwt beam="1">  1       21 0.17331318E-01 0.22101028E+02</pdfrwt>
<pdfrwt beam="2">  1       21 0.78596482E-03 0.22101028E+02</pdfrwt>
<totfact> 0.11195173E+08</totfact>
</mgrwt>
</event>
<event>
 4    1  0.4353697E+006  0.2217193E+02  0.7546771E-02  0.1705295E+00
         21   -1    0    0  503  501  0.00000000000E+00  0.00000000000E+00  0.92580922837E+01  0.92580922837E+01  0.00000000000E+00 0.  1.
         21   -1    0    0  504  502 -0.00000000000E+00 -0.00000000000E+00 -0.54908857620E+02  0.54908857620E+02  0.00000000000E+00 0.  1.
         21    1    1    2  503  502 -0.22381302050E+01  0.22058679160E+02 -0.28650355758E+02  0.36227578420E+02  0.00000000000E+00 0.  1.
         21    1    1    2  504  501  0.22381302050E+01 -0.22058679160E+02 -0.17000409578E+02  0.27939371484E+02  0.00000000000E+00 0.  1.
<mgrwt>
<rscale>  2 0.22171932E+02</rscale>
<asrwt>0</asrwt>
<pdfrwt beam="1">  1       21 0.14243219E-02 0.22171932E+02</pdfrwt>
<pdfrwt beam="2">  1       21 0.84475164E-02 0.22171932E+02</pdfrwt>
<totfact> 0.15276898E+08</totfact>
</mgrwt>
</event>
<event>
 4    1  0.4353697E+006  0.2093854E+02  0.7546771E-02  0.1727283E+00
         21   -1    0    0  504  501  0.00000000000E+00  0.00000000000E+00  0.13707765415E+02  0.13707765415E+02  0.00000000000E+00 0. -1.
         21   -1    0    0  503  502 -0.00000000000E+00 -0.00000000000E+00 -0.53249348726E+02  0.53249348726E+02  0.00000000000E+00 0. -1.
         21    1    1    2  503  501 -0.29736108761E+01 -0.20726316663E+02 -0.40927629432E+02  0.45972746438E+02  0.00000000000E+00 0. -1.
         21    1    1    2  504  502  0.29736108761E+01  0.20726316663E+02  0.13860461209E+01  0.20984367703E+02  0.00000000000E+00 0. -1.
<mgrwt>
<rscale>  2 0.20938543E+02</rscale>
<asrwt>0</asrwt>
<pdfrwt beam="1">  1       21 0.21088870E-02 0.20938543E+02</pdfrwt>
<pdfrwt beam="2">  1       21 0.81922074E-02 0.20938543E+02</pdfrwt>
<totfact> 0.86848812E+07</totfact>
</mgrwt>
</event>
<event>
 4    1  0.4353697E+006  0.2379158E+02  0.7546771E-02  0.1678991E+00
         21   -1    0    0  503  501  0.00000000000E+00  0.00000000000E+00  0.39094313867E+02  0.39094313867E+02  0.00000000000E+00 0.  1.
         21   -1    0    0  504  502 -0.00000000000E+00 -0.00000000000E+00 -0.17295696892E+02  0.17295696892E+02  0.00000000000E+00 0. -1.
         21    1    1    2  503  502 -0.31405441626E+01 -0.23583390220E+02 -0.47925715860E+00  0.23796407278E+02  0.00000000000E+00 0. -1.
         21    1    1    2  504  501  0.31405441626E+01  0.23583390220E+02  0.22277874134E+02  0.32593603481E+02  0.00000000000E+00 0.  1.
<mgrwt>
<rscale>  2 0.23791581E+02</rscale>
<asrwt>0</asrwt>
<pdfrwt beam="1">  1       21 0.60145098E-02 0.23791581E+02</pdfrwt>
<pdfrwt beam="2">  1       21 0.26608764E-02 0.23791581E+02</pdfrwt>
<totfact> 0.10378619E+08</totfact>
</mgrwt>
</event>
<event>
 4    1  0.4353697E+006  0.2574341E+02  0.7546771E-02  0.1650548E+00
         21   -1    0    0  503  501  0.00000000000E+00  0.00000000000E+00  0.21926619876E+01  0.21926619876E+01  0.00000000000E+00 0.  1.
         21   -1    0    0  504  502 -0.00000000000E+00 -0.00000000000E+00 -0.54752513898E+03  0.54752513898E+03  0.00000000000E+00 0. -1.
         21    1    1    2  503  502  0.63798058688E-01 -0.25743330444E+02 -0.45663248735E+03  0.45735757525E+03  0.00000000000E+00 0. -1.
         21    1    1    2  504  501 -0.63798058688E-01  0.25743330444E+02 -0.88699989639E+02  0.92360225717E+02  0.00000000000E+00 0.  1.
<mgrwt>
<rscale>  2 0.25743409E+02</rscale>
<asrwt>0</asrwt>
<pdfrwt beam="1">  1       21 0.33733278E-03 0.25743409E+02</pdfrwt>
<pdfrwt beam="2">  1       21 0.84234596E-01 0.25743409E+02</pdfrwt>
<totfact> 0.20340983E+07</totfact>
</mgrwt>
</event>
<event>
 4    1  0.4353697E+006  0.3200130E+02  0.7546771E-02  0.1576965E+00
         21   -1    0    0  503  501  0.00000000000E+00  0.00000000000E+00  0.23969957489E+01  0.23969957489E+01  0.00000000000E+00 0.  1.
         21   -1    0    0  504  502 -0.00000000000E+00 -0.00000000000E+00 -0.45294401616E+03  0.45294401616E+03  0.00000000000E+00 0. -1.
         21    1    1    2  503  502  0.30356507300E+02  0.10127459714E+02 -0.27951335517E+03  0.28133929462E+03  0.00000000000E+00 0. -1.
         21    1    1    2  504  501 -0.30356507300E+02 -0.10127459714E+02 -0.17103366524E+03  0.17400171730E+03  0.00000000000E+00 0.  1.
<mgrwt>
<rscale>  2 0.32001296E+02</rscale>
<asrwt>0</asrwt>
<pdfrwt beam="1">  1       21 0.36876909E-03 0.32001296E+02</pdfrwt>
<pdfrwt beam="2">  1       21 0.69683598E-01 0.32001296E+02</pdfrwt>
<totfact> 0.27606688E+07</totfact>
</mgrwt>
</event>
<event>
 4    1  0.4353697E+006  0.2293110E+02  0.7546771E-02  0.1692629E+00
         21   -1    0    0  502  501  0.00000000000E+00  0.00000000000E+00  0.99106254180E+02  0.99106254180E+02  0.00000000000E+00 0.  1.
         21   -1    0    0  504  502 -0.00000000000E+00 -0.00000000000E+00 -0.57790956626E+01  0.57790956626E+01  0.00000000000E+00 0.  1.
         21    1    1    2  503  501  0.17924586600E+02 -0.14301907902E+02  0.31655222621E+02  0.39088214255E+02  0.00000000000E+00 0.  1.
         21    1    1    2  504  503 -0.17924586600E+02  0.14301907902E+02  0.61671935896E+02  0.65797135588E+02  0.00000000000E+00 0.  1.
<mgrwt>
<rscale>  2 0.22931101E+02</rscale>
<asrwt>0</asrwt>
<pdfrwt beam="1">  1       21 0.15247115E-01 0.22931101E+02</pdfrwt>
<pdfrwt beam="2">  1       21 0.88909171E-03 0.22931101E+02</pdfrwt>
<totfact> 0.11719394E+08</totfact>
</mgrwt>
</event>
<event>
 4    1  0.4353697E+006  0.2144071E+02  0.7546771E-02  0.1718108E+00
         21   -1    0    0  503  501  0.00000000000E+00  0.00000000000E+00  0.55052637331E+02  0.55052637331E+02  0.00000000000E+00 0. -1.
         21   -1    0    0  501  502 -0.00000000000E+00 -0.00000000000E+00 -0.68468761526E+02  0.68468761526E+02  0.00000000000E+00 0. -1.
         21    1    1    2  503  504  0.21251170888E+02  0.28446027997E+01  0.51164142971E+02  0.55474981344E+02  0.00000000000E+00 0. -1.
         21    1    1    2  504  502 -0.21251170888E+02 -0.28446027997E+01 -0.64580267166E+02  0.68046417514E+02  0.00000000000E+00 0. -1.
<mgrwt>
<rscale>  2 0.21440710E+02</rscale>
<asrwt>0</asrwt>
<pdfrwt beam="1">  1       21 0.84696366E-02 0.21440710E+02</pdfrwt>
<pdfrwt beam="2">  1       21 0.10533656E-01 0.21440710E+02</pdfrwt>
<totfact> 0.64538975E+06</totfact>
</mgrwt>
</event>
<event>
 4    1  0.4353697E+006  0.3606964E+02  0.7546771E-02  0.1539302E+00
         21   -1    0    0  503  501  0.00000000000E+00  0.00000000000E+00  0.20269312690E+03  0.20269312690E+03  0.00000000000E+00 0. -1.
         21   -1    0    0  504  502 -0.00000000000E+00 -0.00000000000E+00 -0.68012103733E+01  0.68012103733E+01  0.00000000000E+00 0. -1.
         21    1    1    2  503  502  0.21598559348E+02 -0.28888075086E+02  0.12278829436E+03  0.12797649737E+03  0.00000000000E+00 0. -1.
         21    1    1    2  504  501 -0.21598559348E+02  0.28888075086E+02  0.73103622168E+02  0.81517839901E+02  0.00000000000E+00 0. -1.
<mgrwt>
<rscale>  2 0.36069636E+02</rscale>
<asrwt>0</asrwt>
<pdfrwt beam="1">  1       21 0.31183553E-01 0.36069636E+02</pdfrwt>
<pdfrwt beam="2">  1       21 0.10463402E-02 0.36069636E+02</pdfrwt>
<totfact> 0.28448788E+07</totfact>
</mgrwt>
</event>
<event>
 4    1  0.4353697E+006  0.2277675E+02  0.7546771E-02  0.1695155E+00
         21   -1    0    0  503  501  0.00000000000E+00  0.00000000000E+00  0.14601191183E+03  0.14601191183E+03  0.00000000000E+00 0.  1.
         21   -1    0    0  504  502 -0.00000000000E+00 -0.00000000000E+00 -0.19175412236E+02  0.19175412236E+02  0.00000000000E+00 0.  1.
         21    1    1    2  503  502 -0.16299839800E+02 -0.15908978829E+02 -0.11131880785E+02  0.25351511882E+02  0.00000000000E+00 0.  1.
         21    1    1    2  504  501  0.16299839800E+02  0.15908978829E+02  0.13796838038E+03  0.13983581218E+03  0.00000000000E+00 0.  1.
<mgrwt>
<rscale>  2 0.22776751E+02</rscale>
<asrwt>0</asrwt>
<pdfrwt beam="1">  1       21 0.22463370E-01 0.22776751E+02</pdfrwt>
<pdfrwt beam="2">  1       21 0.29500635E-02 0.22776751E+02</pdfrwt>
<totfact> 0.96075493E+06</totfact>
</mgrwt>
</event>
<event>
 4    1  0.4353697E+006  0.2240010E+02  0.7546771E-02  0.1701423E+00
         21   -1    0    0  502  501  0.00000000000E+00  0.00000000000E+00  0.17545817028E+03  0.17545817028E+03  0.00000000000E+00 0. -1.
         21   -1    0    0  503  502 -0.00000000000E+00 -0.00000000000E+00 -0.69910519629E+01  0.69910519629E+01  0.00000000000E+00 0. -1.
         21    1    1    2  503  504  0.29814325755E+00 -0.22398112753E+02  0.14106621902E+02  0.26471893128E+02  0.00000000000E+00 0. -1.
         21    1    1    2  504  501 -0.29814325755E+00  0.22398112753E+02  0.15436049641E+03  0.15597732911E+03  0.00000000000E+00 0. -1.
<mgrwt>
<rscale>  2 0.22400097E+02</rscale>
<asrwt>0</asrwt>
<pdfrwt beam="1">  1       21 0.26993561E-01 0.22400097E+02</pdfrwt>
<pdfrwt beam="2">  1       21 0.10755466E-02 0.22400097E+02</pdfrwt>
<totfact> 0.32268557E+07</totfact>
</mgrwt>
</event>
<event>
 4    1  0.4353697E+006  0.2319999E+02  0.7546771E-02  0.1688289E+00
         21   -1    0    0  503  501  0.00000000000E+00  0.00000000000E+00  0.50915891593E+03  0.50915891593E+03  0.00000000000E+00 0.  1.
         21   -1    0    0  504  502 -0.00000000000E+00 -0.00000000000E+00 -0.36276163152E+01  0.36276163152E+01  0.00000000000E+00 0. -1.
         21    1    1    2  503  502 -0.23123616462E+02 -0.18809419679E+01  0.36939110113E+02  0.43620378688E+02  0.00000000000E+00 0. -1.
         21    1    1    2  504  501  0.23123616462E+02  0.18809419679E+01  0.46859218950E+03  0.46916615356E+03  0.00000000000E+00 0.  1.
<mgrwt>
<rscale>  2 0.23199991E+02</rscale>
<asrwt>0</asrwt>
<pdfrwt beam="1">  1       21 0.78332084E-01 0.23199991E+02</pdfrwt>
<pdfrwt beam="2">  1       21 0.55809522E-03 0.23199991E+02</pdfrwt>
<totfact> 0.11089265E+07</totfact>
</mgrwt>
</event>
<event>
 4    1  0.4353697E+006  0.2073803E+02  0.7546771E-02  0.1731037E+00
         21   -1    0    0  503  501  0.00000000000E+00  0.00000000000E+00  0.41595334579E+02  0.41595334579E+02  0.00000000000E+00 0. -1.
         21   -1    0    0  501  502 -0.00000000000E+00 -0.00000000000E+00 -0.32465396504E+02  0.32465396504E+02  0.00000000000E+00 0.  1.
         21    1    1    2  503  504  0.20730322375E+02  0.56551445687E+00  0.35135302722E+02  0.40798965302E+02  0.00000000000E+00 0. -1.
         21    1    1    2  504  502 -0.20730322375E+02 -0.56551445687E+00 -0.26005364648E+02  0.33261765781E+02  0.00000000000E+00 0.  1.
<mgrwt>
<rscale>  2 0.20738034E+02</rscale>
<asrwt>0</asrwt>
<pdfrwt beam="1">  1       21 0.63992822E-02 0.20738034E+02</pdfrwt>
<pdfrwt beam="2">  1       21 0.49946764E-02 0.20738034E+02</pdfrwt>
<totfact> 0.33730417E+07</totfact>
</mgrwt>
</event>
<event>
 4    1  0.4353697E+006  0.2364564E+02  0.7546771E-02  0.1681253E+00
         21   -1    0    0  503  501  0.00000000000E+00  0.00000000000E+00  0.69722749672E+02  0.69722749672E+02  0.00000000000E+00 0. -1.
         21   -1    0    0  504  502 -0.00000000000E+00 -0.00000000000E+00 -0.14391140711E+02  0.14391140711E+02  0.00000000000E+00 0.  1.
         21    1    1    2  503  502 -0.95235634753E+01  0.21642962036E+02 -0.31938357746E+00  0.23647792134E+02  0.00000000000E+00 0.  1.
         21    1    1    2  504  501  0.95235634753E+01 -0.21642962036E+02  0.55650992539E+02  0.60466098249E+02  0.00000000000E+00 0. -1.
<mgrwt>
<rscale>  2 0.23645635E+02</rscale>
<asrwt>0</asrwt>
<pdfrwt beam="1">  1       21 0.10726577E-01 0.23645635E+02</pdfrwt>
<pdfrwt beam="2">  1       21 0.22140217E-02 0.23645635E+02</pdfrwt>
<totfact> 0.53471447E+07</totfact>
</mgrwt>
</event>
<event>
 4    1  0.4353697E+006  0.3619267E+02  0.7546771E-02  0.1538257E+00
         21   -1    0    0  502  501  0.00000000000E+00  0.00000000000E+00  0.30419886944E+02  0.30419886944E+02  0.00000000000E+00 0.  1.
         21   -1    0    0  504  502 -0.00000000000E+00 -0.00000000000E+00 -0.75082514747E+02  0.75082514747E+02  0.00000000000E+00 0.  1.
         21    1    1    2  503  501 -0.34001062630E+01  0.36032608981E+02  0.12118281918E+02  0.38167556763E+02  0.00000000000E+00 0.  1.
         21    1    1    2  504  503  0.34001062630E+01 -0.36032608981E+02 -0.56780909722E+02  0.67334844928E+02  0.00000000000E+00 0.  1.
<mgrwt>
<rscale>  2 0.36192674E+02</rscale>
<asrwt>0</asrwt>
<pdfrwt beam="1">  1       21 0.46799826E-02 0.36192674E+02</pdfrwt>
<pdfrwt beam="2">  1       21 0.11551156E-01 0.36192674E+02</pdfrwt>
<totfact> 0.15838750E+07</totfact>
</mgrwt>
</event>
<event>
 4    1  0.4353697E+006  0.2083419E+02  0.7546771E-02  0.1729231E+00
         21   -1    0    0  503  501  0.00000000000E+00  0.00000000000E+00  0.79235316622E+03  0.79235316622E+03  0.00000000000E+00 0. -1.
         21   -1    0    0  504  502 -0.00000000000E+00 -0.00000000000E+00 -0.12832776516E+01  0.12832776516E+01  0.00000000000E+00 0.  1.
         21    1    1    2  503  502 -0.20322947055E+02  0.45870609185E+01  0.69594292810E+03  0.69625471092E+03  0.00000000000E+00 0. -1.
         21    1    1    2  504  501  0.20322947055E+02 -0.45870609185E+01  0.95126960476E+02  0.97381732960E+02  0.00000000000E+00 0.  1.
<mgrwt>
<rscale>  2 0.20834186E+02</rscale>
<asrwt>0</asrwt>
<pdfrwt beam="1">  1       21 0.12190010E+00 0.20834186E+02</pdfrwt>
<pdfrwt beam="2">  1       21 0.19742796E-03 0.20834186E+02</pdfrwt>
<totfact> 0.18933992E+07</totfact>
</mgrwt>
</event>
<event>
 4    1  0.4353697E+006  0.2076560E+02  0.7546771E-02  0.1730518E+00
         21   -1    0    0  504  501  0.00000000000E+00  0.00000000000E+00  0.31886227882E+03  0.31886227882E+03  0.00000000000E+00 0.  1.
         21   -1    0    0  503  502 -0.00000000000E+00 -0.00000000000E+00 -0.54390058832E+01  0.54390058832E+01  0.00000000000E+00 0.  1.
         21    1    1    2  503  501 -0.19401526528E+02  0.74020845579E+01  0.16157543665E+02  0.26311144117E+02  0.00000000000E+00 0.  1.
         21    1    1    2  504  502  0.19401526528E+02 -0.74020845579E+01  0.29726572927E+03  0.29799014059E+03  0.00000000000E+00 0.  1.
<mgrwt>
<rscale>  2 0.20765599E+02</rscale>
<asrwt>0</asrwt>
<pdfrwt beam="1">  1       21 0.49055720E-01 0.20765599E+02</pdfrwt>
<pdfrwt beam="2">  1       21 0.83677039E-03 0.20765599E+02</pdfrwt>
<totfact> 0.15227352E+07</totfact>
</mgrwt>
</event>
<event>
 4    1  0.4353697E+006  0.2186994E+02  0.7546771E-02  0.1710511E+00
         21   -1    0    0  502  501  0.00000000000E+00  0.00000000000E+00  0.54661030127E+02  0.54661030127E+02  0.00000000000E+00 0.  1.
         21   -1    0    0  503  502 -0.00000000000E+00 -0.00000000000E+00 -0.11140669445E+02  0.11140669445E+02  0.00000000000E+00 0. -1.
         21    1    1    2  503  504 -0.12395150703E+02 -0.18018166542E+02  0.65198458937E+01  0.22821097190E+02  0.00000000000E+00 0. -1.
         21    1    1    2  504  501  0.12395150703E+02  0.18018166542E+02  0.37000514788E+02  0.42980602382E+02  0.00000000000E+00 0.  1.
<mgrwt>
<rscale>  2 0.21869936E+02</rscale>
<asrwt>0</asrwt>
<pdfrwt beam="1">  1       21 0.84093891E-02 0.21869936E+02</pdfrwt>
<pdfrwt beam="2">  1       21 0.17139492E-02 0.21869936E+02</pdfrwt>
<totfact> 0.11569092E+08</totfact>
</mgrwt>
</event>
<event>
 4    1  0.4353697E+006  0.2070005E+02  0.7546771E-02  0.1731755E+00
         21   -1    0    0  504  501  0.00000000000E+00  0.00000000000E+00  0.15808831467E+02  0.15808831467E+02  0.00000000000E+00 0.  1.
         21   -1    0    0  503  502 -0.00000000000E+00 -0.00000000000E+00 -0.29137862192E+02  0.29137862192E+02  0.00000000000E+00 0.  1.
         21    1    1    2  503  501  0.39515000446E+01  0.20319389482E+02 -0.12601095846E+02  0.24233851490E+02  0.00000000000E+00 0.  1.
         21    1    1    2  504  502 -0.39515000446E+01 -0.20319389482E+02 -0.72793487903E+00  0.20712842169E+02  0.00000000000E+00 0.  1.
<mgrwt>
<rscale>  2 0.20700047E+02</rscale>
<asrwt>0</asrwt>
<pdfrwt beam="1">  1       21 0.24321280E-02 0.20700047E+02</pdfrwt>
<pdfrwt beam="2">  1       21 0.44827480E-02 0.20700047E+02</pdfrwt>
<totfact> 0.18258089E+08</totfact>
</mgrwt>
</event>
<event>
 4    1  0.4353697E+006  0.2280042E+02  0.7546771E-02  0.1694766E+00
         21   -1    0    0  504  501  0.00000000000E+00  0.00000000000E+00  0.72774032743E+02  0.72774032743E+02  0.00000000000E+00 0.  1.
         21   -1    0    0  503  502 -0.00000000000E+00 -0.00000000000E+00 -0.54592729879E+02  0.54592729879E+02  0.00000000000E+00 0.  1.
         21    1    1    2  503  501 -0.21440256339E+02 -0.77572410138E+01 -0.50280218665E+02  0.55208330613E+02  0.00000000000E+00 0.  1.
         21    1    1    2  504  502  0.21440256339E+02  0.77572410138E+01  0.68461521529E+02  0.72158432009E+02  0.00000000000E+00 0.  1.
<mgrwt>
<rscale>  2 0.22800425E+02</rscale>
<asrwt>0</asrwt>
<pdfrwt beam="1">  1       21 0.11196005E-01 0.22800425E+02</pdfrwt>
<pdfrwt beam="2">  1       21 0.83988816E-02 0.22800425E+02</pdfrwt>
<totfact> 0.59776342E+06</totfact>
</mgrwt>
</event>
<event>
 4    1  0.4353697E+006  0.3710915E+02  0.7546771E-02  0.1530631E+00
         21   -1    0    0  503  501  0.00000000000E+00  0.00000000000E+00  0.11145579439E+02  0.11145579439E+02  0.00000000000E+00 0.  1.
         21   -1    0    0  501  502 -0.00000000000E+00 -0.00000000000E+00 -0.35680295566E+03  0.35680295566E+03  0.00000000000E+00 0.  1.
         21    1    1    2  503  504 -0.25186113504E+02  0.27253415865E+02 -0.24080377841E+02  0.44237468131E+02  0.00000000000E+00 0.  1.
         21    1    1    2  504  502  0.25186113504E+02 -0.27253415865E+02 -0.32157699838E+03  0.32371106696E+03  0.00000000000E+00 0.  1.
<mgrwt>
<rscale>  2 0.37109150E+02</rscale>
<asrwt>0</asrwt>
<pdfrwt beam="1">  1       21 0.17147049E-02 0.37109150E+02</pdfrwt>
<pdfrwt beam="2">  1       21 0.54892751E-01 0.37109150E+02</pdfrwt>
<totfact> 0.44820103E+06</totfact>
</mgrwt>
</event>
<event>
 4    1  0.4353697E+006  0.2937278E+02  0.7546771E-02  0.1605127E+00
         21   -1    0    0  504  501  0.00000000000E+00  0.00000000000E+00  0.46293349437E+02  0.46293349437E+02  0.00000000000E+00 0.  1.
         21   -1    0    0  503  502 -0.00000000000E+00 -0.00000000000E+00 -0.86166562991E+02  0.86166562991E+02  0.00000000000E+00 0.  1.
         21    1    1    2  503  501  0.28044120653E+02  0.87342559122E+01  0.38695121119E+02  0.48580575624E+02  0.00000000000E+00 0.  1.
         21    1    1    2  504  502 -0.28044120653E+02 -0.87342559122E+01 -0.78568334673E+02  0.83879336805E+02  0.00000000000E+00 0.  1.
<mgrwt>
<rscale>  2 0.29372775E+02</rscale>
<asrwt>0</asrwt>
<pdfrwt beam="1">  1       21 0.71220539E-02 0.29372775E+02</pdfrwt>
<pdfrwt beam="2">  1       21 0.13256394E-01 0.29372775E+02</pdfrwt>
<totfact> 0.61342311E+06</totfact>
</mgrwt>
</event>
<event>
 4    1  0.4353697E+006  0.2609140E+02  0.7546771E-02  0.1645803E+00
         21   -1    0    0  503  501  0.00000000000E+00  0.00000000000E+00  0.12861536004E+02  0.12861536004E+02  0.00000000000E+00 0.  1.
         21   -1    0    0  504  502 -0.00000000000E+00 -0.00000000000E+00 -0.62179916712E+02  0.62179916712E+02  0.00000000000E+00 0.  1.
         21    1    1    2  503  502 -0.24495502719E+02 -0.89850621955E+01 -0.10187632966E+02  0.28009799385E+02  0.00000000000E+00 0.  1.
         21    1    1    2  504  501  0.24495502719E+02  0.89850621955E+01 -0.39130747743E+02  0.47031653331E+02  0.00000000000E+00 0.  1.
<mgrwt>
<rscale>  2 0.26091397E+02</rscale>
<asrwt>0</asrwt>
<pdfrwt beam="1">  1       21 0.19786978E-02 0.26091397E+02</pdfrwt>
<pdfrwt beam="2">  1       21 0.95661413E-02 0.26091397E+02</pdfrwt>
<totfact> 0.78840628E+07</totfact>
</mgrwt>
</event>
<event>
 4    1  0.4353697E+006  0.2122830E+02  0.7546771E-02  0.1721950E+00
         21   -1    0    0  504  501  0.00000000000E+00  0.00000000000E+00  0.36848239709E+01  0.36848239709E+01  0.00000000000E+00 0. -1.
         21   -1    0    0  501  502 -0.00000000000E+00 -0.00000000000E+00 -0.22492275741E+03  0.22492275741E+03  0.00000000000E+00 0. -1.
         21    1    1    2  503  502  0.15989163132E+02  0.13963795805E+02 -0.18782891508E+03  0.18902471339E+03  0.00000000000E+00 0. -1.
         21    1    1    2  504  503 -0.15989163132E+02 -0.13963795805E+02 -0.33409018361E+02  0.39582867996E+02  0.00000000000E+00 0. -1.
<mgrwt>
<rscale>  2 0.21228305E+02</rscale>
<asrwt>0</asrwt>
<pdfrwt beam="1">  1       21 0.56689601E-03 0.21228305E+02</pdfrwt>
<pdfrwt beam="2">  1       21 0.34603501E-01 0.21228305E+02</pdfrwt>
<totfact> 0.52616051E+07</totfact>
</mgrwt>
</event>
<event>
 4    1  0.4353697E+006  0.3007516E+02  0.7546771E-02  0.1597259E+00
         21   -1    0    0  502  501  0.00000000000E+00  0.00000000000E+00  0.21360503492E+04  0.21360503492E+04  0.00000000000E+00 0.  1.
         21   -1    0    0  504  502 -0.00000000000E+00 -0.00000000000E+00 -0.15458087639E+02  0.15458087639E+02  0.00000000000E+00 0. -1.
         21    1    1    2  503  501  0.28058100727E+02 -0.10828584772E+02  0.21212136614E+04  0.21214268577E+04  0.00000000000E+00 0.  1.
         21    1    1    2  504  503 -0.28058100727E+02  0.10828584772E+02 -0.62139985761E+00  0.30081579120E+02  0.00000000000E+00 0. -1.
<mgrwt>
<rscale>  2 0.30075160E+02</rscale>
<asrwt>0</asrwt>
<pdfrwt beam="1">  1       21 0.32862290E+00 0.30075160E+02</pdfrwt>
<pdfrwt beam="2">  1       21 0.23781690E-02 0.30075160E+02</pdfrwt>
<totfact> 0.31090099E+04</totfact>
</mgrwt>
</event>
<event>
 4    1  0.4353697E+006  0.2519404E+02  0.7546771E-02  0.1658230E+00
         21   -1    0    0  504  501  0.00000000000E+00  0.00000000000E+00  0.30427401429E+03  0.30427401429E+03  0.00000000000E+00 0. -1.
         21   -1    0    0  503  502 -0.00000000000E+00 -0.00000000000E+00 -0.48408191547E+01  0.48408191547E+01  0.00000000000E+00 0. -1.
         21    1    1    2  503  501 -0.23133230895E+02 -0.99796345348E+01  0.33124052927E+02  0.41616611580E+02  0.00000000000E+00 0. -1.
         21    1    1    2  504  502  0.23133230895E+02  0.99796345348E+01  0.26630914220E+03  0.26749822186E+03  0.00000000000E+00 0. -1.
<mgrwt>
<rscale>  2 0.25194037E+02</rscale>
<asrwt>0</asrwt>
<pdfrwt beam="1">  1       21 0.46811372E-01 0.25194037E+02</pdfrwt>
<pdfrwt beam="2">  1       21 0.74474164E-03 0.25194037E+02</pdfrwt>
<totfact> 0.20616300E+07</totfact>
</mgrwt>
</event>
<event>
 4    1  0.4353697E+006  0.2377883E+02  0.7546771E-02  0.1679188E+00
         21   -1    0    0  503  501  0.00000000000E+00  0.00000000000E+00  0.18816819908E+03  0.18816819908E+03  0.00000000000E+00 0.  1.
         21   -1    0    0  504  502 -0.00000000000E+00 -0.00000000000E+00 -0.60211011559E+01  0.60211011559E+01  0.00000000000E+00 0. -1.
         21    1    1    2  503  502 -0.42860026321E+01 -0.23389378338E+02  0.22353238634E+02  0.32635871599E+02  0.00000000000E+00 0. -1.
         21    1    1    2  504  501  0.42860026321E+01  0.23389378338E+02  0.15979385929E+03  0.16155342864E+03  0.00000000000E+00 0.  1.
<mgrwt>
<rscale>  2 0.23778832E+02</rscale>
<asrwt>0</asrwt>
<pdfrwt beam="1">  1       21 0.28948949E-01 0.23778832E+02</pdfrwt>
<pdfrwt beam="2">  1       21 0.92632340E-03 0.23778832E+02</pdfrwt>
<totfact> 0.36095022E+07</totfact>
</mgrwt>
</event>
<event>
 4    1  0.4353697E+006  0.2221870E+02  0.7546771E-02  0.1704497E+00
         21   -1    0    0  504  501  0.00000000000E+00  0.00000000000E+00  0.66250657456E+02  0.66250657456E+02  0.00000000000E+00 0.  1.
         21   -1    0    0  503  502 -0.00000000000E+00 -0.00000000000E+00 -0.74633575379E+01  0.74633575379E+01  0.00000000000E+00 0.  1.
         21    1    1    2  503  501  0.21181296165E+02  0.67099280406E+01  0.27927987151E+02  0.35688133992E+02  0.00000000000E+00 0.  1.
         21    1    1    2  504  502 -0.21181296165E+02 -0.67099280406E+01  0.30859312768E+02  0.38025881003E+02  0.00000000000E+00 0.  1.
<mgrwt>
<rscale>  2 0.22218696E+02</rscale>
<asrwt>0</asrwt>
<pdfrwt beam="1">  1       21 0.10192408E-01 0.22218696E+02</pdfrwt>
<pdfrwt beam="2">  1       21 0.11482089E-02 0.22218696E+02</pdfrwt>
<totfact> 0.15546523E+08</totfact>
</mgrwt>
</event>
<event>
 4    1  0.4353697E+006  0.2266958E+02  0.7546771E-02  0.1696923E+00
         21   -1    0    0  502  501  0.00000000000E+00  0.00000000000E+00  0.83552378941E+02  0.83552378941E+02  0.00000000000E+00 0.  1.
         21   -1    0    0  503  502 -0.00000000000E+00 -0.00000000000E+00 -0.66690057147E+03  0.66690057147E+03  0.00000000000E+00 0.  1.
         21    1    1    2  503  504  0.17478656390E+02  0.14436283013E+02 -0.66516622755E+03  0.66555241714E+03  0.00000000000E+00 0.  1.
         21    1    1    2  504  501 -0.17478656390E+02 -0.14436283013E+02  0.81818035014E+02  0.84900533272E+02  0.00000000000E+00 0.  1.
<mgrwt>
<rscale>  2 0.22669576E+02</rscale>
<asrwt>0</asrwt>
<pdfrwt beam="1">  1       21 0.12854213E-01 0.22669576E+02</pdfrwt>
<pdfrwt beam="2">  1       21 0.10260009E+00 0.22669576E+02</pdfrwt>
<totfact> 0.46547148E+04</totfact>
</mgrwt>
</event>
<event>
 4    1  0.4353697E+006  0.2153524E+02  0.7546771E-02  0.1716416E+00
         21   -1    0    0  504  501  0.00000000000E+00  0.00000000000E+00  0.23642913128E+02  0.23642913128E+02  0.00000000000E+00 0. -1.
         21   -1    0    0  501  502 -0.00000000000E+00 -0.00000000000E+00 -0.42678808644E+03  0.42678808644E+03  0.00000000000E+00 0.  1.
         21    1    1    2  503  502 -0.19024829296E+02 -0.10090714942E+02 -0.42155168524E+03  0.42210139775E+03  0.00000000000E+00 0.  1.
         21    1    1    2  504  503  0.19024829296E+02  0.10090714942E+02  0.18406511925E+02  0.28329601816E+02  0.00000000000E+00 0. -1.
<mgrwt>
<rscale>  2 0.21535242E+02</rscale>
<asrwt>0</asrwt>
<pdfrwt beam="1">  1       21 0.36373716E-02 0.21535242E+02</pdfrwt>
<pdfrwt beam="2">  1       21 0.65659698E-01 0.21535242E+02</pdfrwt>
<totfact> 0.91676787E+05</totfact>
</mgrwt>
</event>
<event>
 4    1  0.4353697E+006  0.2946331E+02  0.7546771E-02  0.1604098E+00
         21   -1    0    0  503  501  0.00000000000E+00  0.00000000000E+00  0.16548104243E+03  0.16548104243E+03  0.00000000000E+00 0. -1.
         21   -1    0    0  501  502 -0.00000000000E+00 -0.00000000000E+00 -0.82680948143E+02  0.82680948143E+02  0.00000000000E+00 0.  1.
         21    1    1    2  503  504  0.11836524695E+02  0.26981165151E+02  0.16148027603E+03  0.16414617308E+03  0.00000000000E+00 0. -1.
         21    1    1    2  504  502 -0.11836524695E+02 -0.26981165151E+02 -0.78680181744E+02  0.84015817493E+02  0.00000000000E+00 0.  1.
<mgrwt>
<rscale>  2 0.29463309E+02</rscale>
<asrwt>0</asrwt>
<pdfrwt beam="1">  1       21 0.25458622E-01 0.29463309E+02</pdfrwt>
<pdfrwt beam="2">  1       21 0.12720146E-01 0.29463309E+02</pdfrwt>
<totfact> 0.74483729E+05</totfact>
</mgrwt>
</event>
<event>
 4    1  0.4353697E+006  0.2760893E+02  0.7546771E-02  0.1626129E+00
         21   -1    0    0  504  501  0.00000000000E+00  0.00000000000E+00  0.55525901825E+02  0.55525901825E+02  0.00000000000E+00 0.  1.
         21   -1    0    0  501  502 -0.00000000000E+00 -0.00000000000E+00 -0.81728333076E+03  0.81728333076E+03  0.00000000000E+00 0. -1.
         21    1    1    2  503  502 -0.23556602543E+01 -0.27508254192E+02 -0.81360267138E+03  0.81407097974E+03  0.00000000000E+00 0. -1.
         21    1    1    2  504  503  0.23556602543E+01  0.27508254192E+02  0.51845242440E+02  0.58738252847E+02  0.00000000000E+00 0.  1.
<mgrwt>
<rscale>  2 0.27608933E+02</rscale>
<asrwt>0</asrwt>
<pdfrwt beam="1">  1       21 0.85424470E-02 0.27608933E+02</pdfrwt>
<pdfrwt beam="2">  1       21 0.12573589E+00 0.27608933E+02</pdfrwt>
<totfact> 0.57694592E+04</totfact>
</mgrwt>
</event>
<event>
 4    1  0.4353697E+006  0.2545691E+02  0.7546771E-02  0.1654525E+00
         21   -1    0    0  503  501  0.00000000000E+00  0.00000000000E+00  0.25536730917E+02  0.25536730917E+02  0.00000000000E+00 0.  1.
         21   -1    0    0  501  502 -0.00000000000E+00 -0.00000000000E+00 -0.33153444453E+02  0.33153444453E+02  0.00000000000E+00 0.  1.
         21    1    1    2  503  504  0.11886685141E+02 -0.22511352932E+02  0.10403542996E+02  0.27500690925E+02  0.00000000000E+00 0.  1.
         21    1    1    2  504  502 -0.11886685141E+02  0.22511352932E+02 -0.18020256532E+02  0.31189484445E+02  0.00000000000E+00 0.  1.
<mgrwt>
<rscale>  2 0.25456911E+02</rscale>
<asrwt>0</asrwt>
<pdfrwt beam="1">  1       21 0.39287278E-02 0.25456911E+02</pdfrwt>
<pdfrwt beam="2">  1       21 0.51005299E-02 0.25456911E+02</pdfrwt>
<totfact> 0.74790716E+07</totfact>
</mgrwt>
</event>
<event>
 4    1  0.4353697E+006  0.2337892E+02  0.7546771E-02  0.1685441E+00
         21   -1    0    0  504  501  0.00000000000E+00  0.00000000000E+00  0.16060344607E+02  0.16060344607E+02  0.00000000000E+00 0.  1.
         21   -1    0    0  503  502 -0.00000000000E+00 -0.00000000000E+00 -0.33994247002E+03  0.33994247002E+03  0.00000000000E+00 0.  1.
         21    1    1    2  503  501 -0.10774819602E+02  0.20747939845E+02 -0.33079746656E+03  0.33162258311E+03  0.00000000000E+00 0.  1.
         21    1    1    2  504  502  0.10774819602E+02 -0.20747939845E+02  0.69153411541E+01  0.24380231511E+02  0.00000000000E+00 0.  1.
<mgrwt>
<rscale>  2 0.23378917E+02</rscale>
<asrwt>0</asrwt>
<pdfrwt beam="1">  1       21 0.24708223E-02 0.23378917E+02</pdfrwt>
<pdfrwt beam="2">  1       21 0.52298840E-01 0.23378917E+02</pdfrwt>
<totfact> 0.26551867E+06</totfact>
</mgrwt>
</event>
<event>
 4    1  0.4353697E+006  0.2560589E+02  0.7546771E-02  0.1652449E+00
         21   -1    0    0  503  501  0.00000000000E+00  0.00000000000E+00  0.78349848284E+02  0.78349848284E+02  0.00000000000E+00 0.  1.
         21   -1    0    0  504  502 -0.00000000000E+00 -0.00000000000E+00 -0.85819193310E+01  0.85819193310E+01  0.00000000000E+00 0.  1.
         21    1    1    2  503  502 -0.23640433153E+02  0.98382601821E+01  0.41740321540E+02  0.48968519330E+02  0.00000000000E+00 0.  1.
         21    1    1    2  504  501  0.23640433153E+02 -0.98382601821E+01  0.28027607413E+02  0.37963248285E+02  0.00000000000E+00 0.  1.
<mgrwt>
<rscale>  2 0.25605887E+02</rscale>
<asrwt>0</asrwt>
<pdfrwt beam="1">  1       21 0.12053822E-01 0.25605887E+02</pdfrwt>
<pdfrwt beam="2">  1       21 0.13202953E-02 0.25605887E+02</pdfrwt>
<totfact> 0.99054604E+07</totfact>
</mgrwt>
</event>
<event>
 4    1  0.4353697E+006  0.2026250E+02  0.7546771E-02  0.1740158E+00
         21   -1    0    0  503  501  0.00000000000E+00  0.00000000000E+00  0.12905523746E+04  0.12905523746E+04  0.00000000000E+00 0.  1.
         21   -1    0    0  501  502 -0.00000000000E+00 -0.00000000000E+00 -0.64127691207E+01  0.64127691207E+01  0.00000000000E+00 0. -1.
         21    1    1    2  503  504  0.27233136737E+01 -0.20078656044E+02  0.12742623241E+04  0.12744234146E+04  0.00000000000E+00 0.  1.
         21    1    1    2  504  502 -0.27233136737E+01  0.20078656044E+02  0.98772813072E+01  0.22541729125E+02  0.00000000000E+00 0. -1.
<mgrwt>
<rscale>  2 0.20262499E+02</rscale>
<asrwt>0</asrwt>
<pdfrwt beam="1">  1       21 0.19854631E+00 0.20262499E+02</pdfrwt>
<pdfrwt beam="2">  1       21 0.98658090E-03 0.20262499E+02</pdfrwt>
<totfact> 0.55846825E+05</totfact>
</mgrwt>
</event>
<event>
 4    1  0.4353697E+006  0.3087529E+02  0.7546771E-02  0.1588610E+00
         21   -1    0    0  503  501  0.00000000000E+00  0.00000000000E+00  0.63151164213E+01  0.63151164213E+01  0.00000000000E+00 0.  1.
         21   -1    0    0  504  502 -0.00000000000E+00 -0.00000000000E+00 -0.15551496434E+03  0.15551496434E+03  0.00000000000E+00 0.  1.
         21    1    1    2  503  502 -0.62384604592E+01 -0.30238475687E+02 -0.60740858639E+02  0.68137623300E+02  0.00000000000E+00 0.  1.
         21    1    1    2  504  501  0.62384604592E+01  0.30238475687E+02 -0.88458989276E+02  0.93692457458E+02  0.00000000000E+00 0.  1.
<mgrwt>
<rscale>  2 0.30875294E+02</rscale>
<asrwt>0</asrwt>
<pdfrwt beam="1">  1       21 0.97155650E-03 0.30875294E+02</pdfrwt>
<pdfrwt beam="2">  1       21 0.23925376E-01 0.30875294E+02</pdfrwt>
<totfact> 0.50168147E+07</totfact>
</mgrwt>
</event>
<event>
 4    1  0.4353697E+006  0.2226137E+02  0.7546771E-02  0.1703771E+00
         21   -1    0    0  503  501  0.00000000000E+00  0.00000000000E+00  0.10886520306E+03  0.10886520306E+03  0.00000000000E+00 0.  1.
         21   -1    0    0  504  502 -0.00000000000E+00 -0.00000000000E+00 -0.42460724646E+02  0.42460724646E+02  0.00000000000E+00 0.  1.
         21    1    1    2  503  502 -0.84066745999E+01 -0.20613011575E+02  0.10469441223E+03  0.10703498669E+03  0.00000000000E+00 0.  1.
         21    1    1    2  504  501  0.84066745999E+01  0.20613011575E+02 -0.38289933817E+02  0.44290941012E+02  0.00000000000E+00 0.  1.
<mgrwt>
<rscale>  2 0.22261366E+02</rscale>
<asrwt>0</asrwt>
<pdfrwt beam="1">  1       21 0.16748493E-01 0.22261366E+02</pdfrwt>
<pdfrwt beam="2">  1       21 0.65324192E-02 0.22261366E+02</pdfrwt>
<totfact> 0.45332596E+06</totfact>
</mgrwt>
</event>
<event>
 4    1  0.4353697E+006  0.2000595E+02  0.7546771E-02  0.1745210E+00
         21   -1    0    0  504  501  0.00000000000E+00  0.00000000000E+00  0.14436618796E+03  0.14436618796E+03  0.00000000000E+00 0.  1.
         21   -1    0    0  503  502 -0.00000000000E+00 -0.00000000000E+00 -0.32174383705E+01  0.32174383705E+01  0.00000000000E+00 0.  1.
         21    1    1    2  503  501 -0.57543637438E+01  0.19160512110E+02  0.43129480054E+02  0.47543558724E+02  0.00000000000E+00 0.  1.
         21    1    1    2  504  502  0.57543637438E+01 -0.19160512110E+02  0.98019269535E+02  0.10004006761E+03  0.00000000000E+00 0.  1.
<mgrwt>
<rscale>  2 0.20005947E+02</rscale>
<asrwt>0</asrwt>
<pdfrwt beam="1">  1       21 0.22210178E-01 0.20005947E+02</pdfrwt>
<pdfrwt beam="2">  1       21 0.49499063E-03 0.20005947E+02</pdfrwt>
<totfact> 0.14006898E+08</totfact>
</mgrwt>
</event>
<event>
 4    1  0.4353697E+006  0.3773373E+02  0.7546771E-02  0.1525583E+00
         21   -1    0    0  503  501  0.00000000000E+00  0.00000000000E+00  0.14607205074E+03  0.14607205074E+03  0.00000000000E+00 0. -1.
         21   -1    0    0  501  502 -0.00000000000E+00 -0.00000000000E+00 -0.62101653089E+02  0.62101653089E+02  0.00000000000E+00 0. -1.
         21    1    1    2  503  504  0.33503219680E+02 -0.17359962862E+02  0.13755484001E+03  0.14263648919E+03  0.00000000000E+00 0. -1.
         21    1    1    2  504  502 -0.33503219680E+02  0.17359962862E+02 -0.53584442358E+02  0.65537214636E+02  0.00000000000E+00 0. -1.
<mgrwt>
<rscale>  2 0.37733725E+02</rscale>
<asrwt>0</asrwt>
<pdfrwt beam="1">  1       21 0.22472623E-01 0.37733725E+02</pdfrwt>
<pdfrwt beam="2">  1       21 0.95541005E-02 0.37733725E+02</pdfrwt>
<totfact> 0.15383087E+06</totfact>
</mgrwt>
</event>
<event>
 4    1  0.4353697E+006  0.3690273E+02  0.7546771E-02  0.1532325E+00
         21   -1    0    0  503  501  0.00000000000E+00  0.00000000000E+00  0.12187892466E+02  0.12187892466E+02  0.00000000000E+00 0.  1.
         21   -1    0    0  504  502 -0.00000000000E+00 -0.00000000000E+00 -0.30222479622E+03  0.30222479622E+03  0.00000000000E+00 0.  1.
         21    1    1    2  503  502  0.10500528957E+02 -0.35377260629E+02 -0.20210828515E+02  0.42074805612E+02  0.00000000000E+00 0.  1.
         21    1    1    2  504  501 -0.10500528957E+02  0.35377260629E+02 -0.26982607524E+03  0.27233788308E+03  0.00000000000E+00 0.  1.
<mgrwt>
<rscale>  2 0.36902733E+02</rscale>
<asrwt>0</asrwt>
<pdfrwt beam="1">  1       21 0.18750603E-02 0.36902733E+02</pdfrwt>
<pdfrwt beam="2">  1       21 0.46496125E-01 0.36902733E+02</pdfrwt>
<totfact> 0.54197816E+06</totfact>
</mgrwt>
</event>
<event>
 4    1  0.4353697E+006  0.4730048E+02  0.7546771E-02  0.1460471E+00
         21   -1    0    0  502  501  0.00000000000E+00  0.00000000000E+00  0.27388284324E+02  0.27388284324E+02  0.00000000000E+00 0. -1.
         21   -1    0    0  503  502 -0.00000000000E+00 -0.00000000000E+00 -0.10238332894E+04  0.10238332894E+04  0.00000000000E+00 0.  1.
         21    1    1    2  503  504 -0.42033452255E+02 -0.21691567900E+02 -0.10024287718E+04  0.10035441085E+04  0.00000000000E+00 0.  1.
         21    1    1    2  504  501  0.42033452255E+02  0.21691567900E+02  0.59837666954E+01  0.47677465226E+02  0.00000000000E+00 0. -1.
<mgrwt>
<rscale>  2 0.47300478E+02</rscale>
<asrwt>0</asrwt>
<pdfrwt beam="1">  1       21 0.42135819E-02 0.47300478E+02</pdfrwt>
<pdfrwt beam="2">  1       21 0.15751282E+00 0.47300478E+02</pdfrwt>
<totfact> 0.10396708E+05</totfact>
</mgrwt>
</event>
<event>
 4    1  0.4353697E+006  0.3804033E+02  0.7546771E-02  0.1523148E+00
         21   -1    0    0  503  501  0.00000000000E+00  0.00000000000E+00  0.70002247382E+02  0.70002247382E+02  0.00000000000E+00 0.  1.
         21   -1    0    0  504  502 -0.00000000000E+00 -0.00000000000E+00 -0.21839100290E+02  0.21839100290E+02  0.00000000000E+00 0. -1.
         21    1    1    2  503  502  0.37998109838E+02  0.17917191719E+01  0.13464673732E+02  0.40352993044E+02  0.00000000000E+00 0. -1.
         21    1    1    2  504  501 -0.37998109838E+02 -0.17917191719E+01  0.34698473359E+02  0.51488354628E+02  0.00000000000E+00 0.  1.
<mgrwt>
<rscale>  2 0.38040329E+02</rscale>
<asrwt>0</asrwt>
<pdfrwt beam="1">  1       21 0.10769576E-01 0.38040329E+02</pdfrwt>
<pdfrwt beam="2">  1       21 0.33598616E-02 0.38040329E+02</pdfrwt>
<totfact> 0.30595317E+07</totfact>
</mgrwt>
</event>
<event>
 4    1  0.4353697E+006  0.2627466E+02  0.7546771E-02  0.1643341E+00
         21   -1    0    0  503  501  0.00000000000E+00  0.00000000000E+00  0.19451159707E+02  0.19451159707E+02  0.00000000000E+00 0. -1.
         21   -1    0    0  504  502 -0.00000000000E+00 -0.00000000000E+00 -0.40929948919E+02  0.40929948919E+02  0.00000000000E+00 0.  1.
         21    1    1    2  503  502 -0.16148494736E+02 -0.20726409093E+02  0.26518549058E+00  0.26276001208E+02  0.00000000000E+00 0. -1.
         21    1    1    2  504  501  0.16148494736E+02  0.20726409093E+02 -0.21743974702E+02  0.34105107418E+02  0.00000000000E+00 0.  1.
<mgrwt>
<rscale>  2 0.26274663E+02</rscale>
<asrwt>0</asrwt>
<pdfrwt beam="1">  1       21 0.29924862E-02 0.26274663E+02</pdfrwt>
<pdfrwt beam="2">  1       21 0.62969151E-02 0.26274663E+02</pdfrwt>
<totfact> 0.82418215E+07</totfact>
</mgrwt>
</event>
<event>
 4    1  0.4353697E+006  0.3786237E+02  0.7546771E-02  0.1524558E+00
         21   -1    0    0  503  501  0.00000000000E+00  0.00000000000E+00  0.90597078273E+02  0.90597078273E+02  0.00000000000E+00 0.  1.
         21   -1    0    0  504  502 -0.00000000000E+00 -0.00000000000E+00 -0.30404215744E+02  0.30404215744E+02  0.00000000000E+00 0.  1.
         21    1    1    2  503  502  0.14939634262E+02 -0.34790319004E+02 -0.11800593075E+02  0.39658706045E+02  0.00000000000E+00 0.  1.
         21    1    1    2  504  501 -0.14939634262E+02  0.34790319004E+02  0.71993455604E+02  0.81342587972E+02  0.00000000000E+00 0.  1.
<mgrwt>
<rscale>  2 0.37862369E+02</rscale>
<asrwt>0</asrwt>
<pdfrwt beam="1">  1       21 0.13938012E-01 0.37862369E+02</pdfrwt>
<pdfrwt beam="2">  1       21 0.46775717E-02 0.37862369E+02</pdfrwt>
<totfact> 0.11568755E+07</totfact>
</mgrwt>
</event>
<event>
 4    1  0.4353697E+006  0.2576825E+02  0.7546771E-02  0.1650206E+00
         21   -1    0    0  503  501  0.00000000000E+00  0.00000000000E+00  0.38915739182E+02  0.38915739182E+02  0.00000000000E+00 0. -1.
         21   -1    0    0  504  502 -0.00000000000E+00 -0.00000000000E+00 -0.19552636188E+02  0.19552636188E+02  0.00000000000E+00 0. -1.
         21    1    1    2  503  502 -0.22661067499E+02  0.12266987520E+02 -0.75105514218E+00  0.25779197948E+02  0.00000000000E+00 0. -1.
         21    1    1    2  504  501  0.22661067499E+02 -0.12266987520E+02  0.20114158137E+02  0.32689177422E+02  0.00000000000E+00 0. -1.
<mgrwt>
<rscale>  2 0.25768255E+02</rscale>
<asrwt>0</asrwt>
<pdfrwt beam="1">  1       21 0.59870368E-02 0.25768255E+02</pdfrwt>
<pdfrwt beam="2">  1       21 0.30080979E-02 0.25768255E+02</pdfrwt>
<totfact> 0.88252376E+07</totfact>
</mgrwt>
</event>
<event>
 4    1  0.4353697E+006  0.2249014E+02  0.7546771E-02  0.1699911E+00
         21   -1    0    0  502  501  0.00000000000E+00  0.00000000000E+00  0.91907139881E+01  0.91907139881E+01  0.00000000000E+00 0. -1.
         21   -1    0    0  503  502 -0.00000000000E+00 -0.00000000000E+00 -0.77831901372E+02  0.77831901372E+02  0.00000000000E+00 0. -1.
         21    1    1    2  503  504  0.76514055071E+01 -0.21148582252E+02 -0.57869231662E+02  0.62085864016E+02  0.00000000000E+00 0. -1.
         21    1    1    2  504  501 -0.76514055071E+01  0.21148582252E+02 -0.10771955722E+02  0.24936751344E+02  0.00000000000E+00 0. -1.
<mgrwt>
<rscale>  2 0.22490143E+02</rscale>
<asrwt>0</asrwt>
<pdfrwt beam="1">  1       21 0.14139560E-02 0.22490143E+02</pdfrwt>
<pdfrwt beam="2">  1       21 0.11974139E-01 0.22490143E+02</pdfrwt>
<totfact> 0.87136622E+07</totfact>
</mgrwt>
</event>
<event>
 4    1  0.4353697E+006  0.2258418E+02  0.7546771E-02  0.1698340E+00
         21   -1    0    0  503  501  0.00000000000E+00  0.00000000000E+00  0.45029957002E+01  0.45029957002E+01  0.00000000000E+00 0.  1.
         21   -1    0    0  504  502 -0.00000000000E+00 -0.00000000000E+00 -0.33461547828E+03  0.33461547828E+03  0.00000000000E+00 0.  1.
         21    1    1    2  503  502 -0.94983119616E+01  0.20489686953E+02 -0.30296306471E+03  0.30380365992E+03  0.00000000000E+00 0.  1.
         21    1    1    2  504  501  0.94983119616E+01 -0.20489686953E+02 -0.27149417873E+02  0.35314814064E+02  0.00000000000E+00 0.  1.
<mgrwt>
<rscale>  2 0.22584180E+02</rscale>
<asrwt>0</asrwt>
<pdfrwt beam="1">  1       21 0.69276839E-03 0.22584180E+02</pdfrwt>
<pdfrwt beam="2">  1       21 0.51479318E-01 0.22584180E+02</pdfrwt>
<totfact> 0.18681676E+07</totfact>
</mgrwt>
</event>
<event>
 4    1  0.4353697E+006  0.2080661E+02  0.7546771E-02  0.1729747E+00
         21   -1    0    0  504  501  0.00000000000E+00  0.00000000000E+00  0.97401040563E+02  0.97401040563E+02  0.00000000000E+00 0. -1.
         21   -1    0    0  501  502 -0.00000000000E+00 -0.00000000000E+00 -0.16319807379E+02  0.16319807379E+02  0.00000000000E+00 0. -1.
         21    1    1    2  503  502  0.18134712572E+02  0.10200361488E+02 -0.79627583453E+01  0.22278256104E+02  0.00000000000E+00 0. -1.
         21    1    1    2  504  503 -0.18134712572E+02 -0.10200361488E+02  0.89043991529E+02  0.91442591838E+02  0.00000000000E+00 0. -1.
<mgrwt>
<rscale>  2 0.20806614E+02</rscale>
<asrwt>0</asrwt>
<pdfrwt beam="1">  1       21 0.14984775E-01 0.20806614E+02</pdfrwt>
<pdfrwt beam="2">  1       21 0.25107396E-02 0.20806614E+02</pdfrwt>
<totfact> 0.24350205E+07</totfact>
</mgrwt>
</event>
<event>
 4    1  0.4353697E+006  0.2447889E+02  0.7546771E-02  0.1668602E+00
         21   -1    0    0  504  501  0.00000000000E+00  0.00000000000E+00  0.74708002745E+00  0.74708002745E+00  0.00000000000E+00 0. -1.
         21   -1    0    0  501  502 -0.00000000000E+00 -0.00000000000E+00 -0.10705746762E+04  0.10705746762E+04  0.00000000000E+00 0. -1.
         21    1    1    2  503  502 -0.23303488706E+02 -0.74942253888E+01 -0.80317100259E+03  0.80354394740E+03  0.00000000000E+00 0. -1.
         21    1    1    2  504  503  0.23303488706E+02  0.74942253888E+01 -0.26665659362E+03  0.26777780887E+03  0.00000000000E+00 0. -1.
<mgrwt>
<rscale>  2 0.24478889E+02</rscale>
<asrwt>0</asrwt>
<pdfrwt beam="1">  1       21 0.11493497E-03 0.24478889E+02</pdfrwt>
<pdfrwt beam="2">  1       21 0.16470440E+00 0.24478889E+02</pdfrwt>
<totfact> 0.20906342E+07</totfact>
</mgrwt>
</event>
<event>
 4    1  0.4353697E+006  0.3372790E+02  0.7546771E-02  0.1560196E+00
         21   -1    0    0  502  501  0.00000000000E+00  0.00000000000E+00  0.87686235110E+02  0.87686235110E+02  0.00000000000E+00 0.  1.
         21   -1    0    0  503  502 -0.00000000000E+00 -0.00000000000E+00 -0.19519176564E+03  0.19519176564E+03  0.00000000000E+00 0.  1.
         21    1    1    2  503  504  0.29973597088E+02  0.15464626287E+02 -0.19041066510E+03  0.19337474647E+03  0.00000000000E+00 0.  1.
         21    1    1    2  504  501 -0.29973597088E+02 -0.15464626287E+02  0.82905134570E+02  0.89503254280E+02  0.00000000000E+00 0.  1.
<mgrwt>
<rscale>  2 0.33727899E+02</rscale>
<asrwt>0</asrwt>
<pdfrwt beam="1">  1       21 0.13490190E-01 0.33727899E+02</pdfrwt>
<pdfrwt beam="2">  1       21 0.30029502E-01 0.33727899E+02</pdfrwt>
<totfact> 0.50175697E+05</totfact>
</mgrwt>
</event>
<event>
 4    1  0.4353697E+006  0.2062697E+02  0.7546771E-02  0.1733140E+00
         21   -1    0    0  503  501  0.00000000000E+00  0.00000000000E+00  0.16377516132E+03  0.16377516132E+03  0.00000000000E+00 0.  1.
         21   -1    0    0  501  502 -0.00000000000E+00 -0.00000000000E+00 -0.13190608080E+02  0.13190608080E+02  0.00000000000E+00 0.  1.
         21    1    1    2  503  504  0.19595037562E+00 -0.20626043127E+02  0.15458444535E+03  0.15595455362E+03  0.00000000000E+00 0.  1.
         21    1    1    2  504  502 -0.19595037562E+00  0.20626043127E+02 -0.39998921089E+01  0.21011215779E+02  0.00000000000E+00 0.  1.
<mgrwt>
<rscale>  2 0.20626974E+02</rscale>
<asrwt>0</asrwt>
<pdfrwt beam="1">  1       21 0.25196177E-01 0.20626974E+02</pdfrwt>
<pdfrwt beam="2">  1       21 0.20293244E-02 0.20626974E+02</pdfrwt>
<totfact> 0.13689306E+07</totfact>
</mgrwt>
</event>
<event>
 4    1  0.4353697E+006  0.3633538E+02  0.7546771E-02  0.1537052E+00
         21   -1    0    0  502  501  0.00000000000E+00  0.00000000000E+00  0.10470294242E+04  0.10470294242E+04  0.00000000000E+00 0.  1.
         21   -1    0    0  503  502 -0.00000000000E+00 -0.00000000000E+00 -0.32416643712E+01  0.32416643712E+01  0.00000000000E+00 0. -1.
         21    1    1    2  503  504 -0.91010933659E+01 -0.35177119629E+02  0.11140869166E+03  0.11718428318E+03  0.00000000000E+00 0. -1.
         21    1    1    2  504  501  0.91010933659E+01  0.35177119629E+02  0.93237906815E+03  0.93308680537E+03  0.00000000000E+00 0.  1.
<mgrwt>
<rscale>  2 0.36335377E+02</rscale>
<asrwt>0</asrwt>
<pdfrwt beam="1">  1       21 0.16108118E+00 0.36335377E+02</pdfrwt>
<pdfrwt beam="2">  1       21 0.49871843E-03 0.36335377E+02</pdfrwt>
<totfact> 0.26926226E+06</totfact>
</mgrwt>
</event>
<event>
 4    1  0.4353697E+006  0.3194086E+02  0.7546771E-02  0.1577575E+00
         21   -1    0    0  503  501  0.00000000000E+00  0.00000000000E+00  0.12794672338E+02  0.12794672338E+02  0.00000000000E+00 0. -1.
         21   -1    0    0  504  502 -0.00000000000E+00 -0.00000000000E+00 -0.14337675905E+03  0.14337675905E+03  0.00000000000E+00 0.  1.
         21    1    1    2  503  502  0.20521531656E+01  0.31874869463E+02 -0.11731385885E+03  0.12158437446E+03  0.00000000000E+00 0.  1.
         21    1    1    2  504  501 -0.20521531656E+01 -0.31874869463E+02 -0.13268227860E+02  0.34587056921E+02  0.00000000000E+00 0. -1.
<mgrwt>
<rscale>  2 0.31940862E+02</rscale>
<asrwt>0</asrwt>
<pdfrwt beam="1">  1       21 0.19684112E-02 0.31940862E+02</pdfrwt>
<pdfrwt beam="2">  1       21 0.22057963E-01 0.31940862E+02</pdfrwt>
<totfact> 0.19787036E+07</totfact>
</mgrwt>
</event>
<event>
 4    1  0.4353697E+006  0.2071526E+02  0.7546771E-02  0.1731467E+00
         21   -1    0    0  503  501  0.00000000000E+00  0.00000000000E+00  0.17649269597E+02  0.17649269597E+02  0.00000000000E+00 0.  1.
         21   -1    0    0  501  502 -0.00000000000E+00 -0.00000000000E+00 -0.38043931150E+02  0.38043931150E+02  0.00000000000E+00 0. -1.
         21    1    1    2  503  504  0.10378785723E+02  0.17927711848E+02  0.65315053069E+01  0.21720557238E+02  0.00000000000E+00 0.  1.
         21    1    1    2  504  502 -0.10378785723E+02 -0.17927711848E+02 -0.26926166860E+02  0.33972643509E+02  0.00000000000E+00 0. -1.
<mgrwt>
<rscale>  2 0.20715261E+02</rscale>
<asrwt>0</asrwt>
<pdfrwt beam="1">  1       21 0.27152723E-02 0.20715261E+02</pdfrwt>
<pdfrwt beam="2">  1       21 0.58529125E-02 0.20715261E+02</pdfrwt>
<totfact> 0.10092255E+08</totfact>
</mgrwt>
</event>
<event>
 4    1  0.4353697E+006  0.4442711E+02  0.7546771E-02  0.1477950E+00
         21   -1    0    0  504  501  0.00000000000E+00  0.00000000000E+00  0.22294931098E+02  0.22294931098E+02  0.00000000000E+00 0.  1.
         21   -1    0    0  501  502 -0.00000000000E+00 -0.00000000000E+00 -0.10215227195E+03  0.10215227195E+03  0.00000000000E+00 0.  1.
         21    1    1    2  503  502 -0.16293748672E+02  0.41331367694E+02 -0.62651236117E+02  0.76804593536E+02  0.00000000000E+00 0.  1.
         21    1    1    2  504  503  0.16293748672E+02 -0.41331367694E+02 -0.17206104739E+02  0.47642609516E+02  0.00000000000E+00 0.  1.
<mgrwt>
<rscale>  2 0.44427111E+02</rscale>
<asrwt>0</asrwt>
<pdfrwt beam="1">  1       21 0.34299895E-02 0.44427111E+02</pdfrwt>
<pdfrwt beam="2">  1       21 0.15715734E-01 0.44427111E+02</pdfrwt>
<totfact> 0.15826706E+07</totfact>
</mgrwt>
</event>
<event>
 4    1  0.4353697E+006  0.2129759E+02  0.7546771E-02  0.1720691E+00
         21   -1    0    0  503  501  0.00000000000E+00  0.00000000000E+00  0.15357695399E+04  0.15357695399E+04  0.00000000000E+00 0.  1.
         21   -1    0    0  504  502 -0.00000000000E+00 -0.00000000000E+00 -0.70621117723E+00  0.70621117723E+00  0.00000000000E+00 0.  1.
         21    1    1    2  503  502  0.11336643603E+02 -0.18029633202E+02  0.18155976342E+03  0.18280463576E+03  0.00000000000E+00 0.  1.
         21    1    1    2  504  501 -0.11336643603E+02  0.18029633202E+02  0.13535035653E+04  0.13536711153E+04  0.00000000000E+00 0.  1.
<mgrwt>
<rscale>  2 0.21297586E+02</rscale>
<asrwt>0</asrwt>
<pdfrwt beam="1">  1       21 0.23626956E+00 0.21297586E+02</pdfrwt>
<pdfrwt beam="2">  1       21 0.10864910E-03 0.21297586E+02</pdfrwt>
<totfact> 0.88020322E+06</totfact>
</mgrwt>
</event>
<event>
 4    1  0.4353697E+006  0.2721791E+02  0.7546771E-02  0.1631048E+00
         21   -1    0    0  504  501  0.00000000000E+00  0.00000000000E+00  0.12768741606E+02  0.12768741606E+02  0.00000000000E+00 0. -1.
         21   -1    0    0  503  502 -0.00000000000E+00 -0.00000000000E+00 -0.60957640067E+02  0.60957640067E+02  0.00000000000E+00 0. -1.
         21    1    1    2  503  501 -0.16701076355E+02  0.21491595815E+02 -0.32189856576E+02  0.42154495709E+02  0.00000000000E+00 0. -1.
         21    1    1    2  504  502  0.16701076355E+02 -0.21491595815E+02 -0.15999041885E+02  0.31571885964E+02  0.00000000000E+00 0. -1.
<mgrwt>
<rscale>  2 0.27217910E+02</rscale>
<asrwt>0</asrwt>
<pdfrwt beam="1">  1       21 0.19644218E-02 0.27217910E+02</pdfrwt>
<pdfrwt beam="2">  1       21 0.93780986E-02 0.27217910E+02</pdfrwt>
<totfact> 0.83279804E+07</totfact>
</mgrwt>
</event>
<event>
 4    1  0.4353697E+006  0.2063677E+02  0.7546771E-02  0.1732954E+00
         21   -1    0    0  504  501  0.00000000000E+00  0.00000000000E+00  0.12084351082E+03  0.12084351082E+03  0.00000000000E+00 0.  1.
         21   -1    0    0  503  502 -0.00000000000E+00 -0.00000000000E+00 -0.11595086721E+02  0.11595086721E+02  0.00000000000E+00 0. -1.
         21    1    1    2  503  501 -0.15452272638E+02 -0.13678583125E+02  0.10987115827E+03  0.11179243170E+03  0.00000000000E+00 0.  1.
         21    1    1    2  504  502  0.15452272638E+02  0.13678583125E+02 -0.62273417121E+00  0.20646165839E+02  0.00000000000E+00 0. -1.
<mgrwt>
<rscale>  2 0.20636772E+02</rscale>
<asrwt>0</asrwt>
<pdfrwt beam="1">  1       21 0.18591308E-01 0.20636772E+02</pdfrwt>
<pdfrwt beam="2">  1       21 0.17838596E-02 0.20636772E+02</pdfrwt>
<totfact> 0.28369640E+07</totfact>
</mgrwt>
</event>
<event>
 4    1  0.4353697E+006  0.2025970E+02  0.7546771E-02  0.1740212E+00
         21   -1    0    0  502  501  0.00000000000E+00  0.00000000000E+00  0.11689159802E+02  0.11689159802E+02  0.00000000000E+00 0. -1.
         21   -1    0    0  503  502 -0.00000000000E+00 -0.00000000000E+00 -0.40514153037E+02  0.40514153037E+02  0.00000000000E+00 0. -1.
         21    1    1    2  503  504  0.17581263221E+02 -0.10067506579E+02 -0.23941766864E+02  0.31363413489E+02  0.00000000000E+00 0. -1.
         21    1    1    2  504  501 -0.17581263221E+02  0.10067506579E+02 -0.48832263712E+01  0.20839899351E+02  0.00000000000E+00 0. -1.
<mgrwt>
<rscale>  2 0.20259702E+02</rscale>
<asrwt>0</asrwt>
<pdfrwt beam="1">  1       21 0.17983323E-02 0.20259702E+02</pdfrwt>
<pdfrwt beam="2">  1       21 0.62329466E-02 0.20259702E+02</pdfrwt>
<totfact> 0.17047699E+08</totfact>
</mgrwt>
</event>
<event>
 4    1  0.4353697E+006  0.2449316E+02  0.7546771E-02  0.1668390E+00
         21   -1    0    0  503  501  0.00000000000E+00  0.00000000000E+00  0.18781755640E+03  0.18781755640E+03  0.00000000000E+00 0. -1.
         21   -1    0    0  504  502 -0.00000000000E+00 -0.00000000000E+00 -0.69241011457E+01  0.69241011457E+01  0.00000000000E+00 0.  1.
         21    1    1    2  503  502 -0.10999166035E+01  0.24468450843E+02  0.18980719345E+02  0.30986813487E+02  0.00000000000E+00 0.  1.
         21    1    1    2  504  501  0.10999166035E+01 -0.24468450843E+02  0.16191273591E+03  0.16375484406E+03  0.00000000000E+00 0. -1.
<mgrwt>
<rscale>  2 0.24493160E+02</rscale>
<asrwt>0</asrwt>
<pdfrwt beam="1">  1       21 0.28895005E-01 0.24493160E+02</pdfrwt>
<pdfrwt beam="2">  1       21 0.10652465E-02 0.24493160E+02</pdfrwt>
<totfact> 0.29549838E+07</totfact>
</mgrwt>
</event>
<event>
 4    1  0.4353697E+006  0.2346721E+02  0.7546771E-02  0.1684047E+00
         21   -1    0    0  504  501  0.00000000000E+00  0.00000000000E+00  0.47071179281E+01  0.47071179281E+01  0.00000000000E+00 0. -1.
         21   -1    0    0  503  502 -0.00000000000E+00 -0.00000000000E+00 -0.13706950684E+03  0.13706950684E+03  0.00000000000E+00 0. -1.
         21    1    1    2  503  501  0.20321948588E+02 -0.11735774695E+02 -0.93309642779E+02  0.96215380463E+02  0.00000000000E+00 0. -1.
         21    1    1    2  504  502 -0.20321948588E+02  0.11735774695E+02 -0.39052746132E+02  0.45561244304E+02  0.00000000000E+00 0. -1.
<mgrwt>
<rscale>  2 0.23467211E+02</rscale>
<asrwt>0</asrwt>
<pdfrwt beam="1">  1       21 0.72417189E-03 0.23467211E+02</pdfrwt>
<pdfrwt beam="2">  1       21 0.21087619E-01 0.23467211E+02</pdfrwt>
<totfact> 0.91468608E+07</totfact>
</mgrwt>
</event>
<event>
 4    1  0.4353697E+006  0.2066009E+02  0.7546771E-02  0.1732511E+00
         21   -1    0    0  502  501  0.00000000000E+00  0.00000000000E+00  0.13275973298E+02  0.13275973298E+02  0.00000000000E+00 0.  1.
         21   -1    0    0  503  502 -0.00000000000E+00 -0.00000000000E+00 -0.61455760731E+02  0.61455760731E+02  0.00000000000E+00 0. -1.
         21    1    1    2  503  504 -0.14992152754E+02  0.14215293809E+02 -0.49892344233E+02  0.54000789211E+02  0.00000000000E+00 0. -1.
         21    1    1    2  504  501  0.14992152754E+02 -0.14215293809E+02  0.17125568000E+01  0.20730944818E+02  0.00000000000E+00 0.  1.
<mgrwt>
<rscale>  2 0.20660088E+02</rscale>
<asrwt>0</asrwt>
<pdfrwt beam="1">  1       21 0.20424574E-02 0.20660088E+02</pdfrwt>
<pdfrwt beam="2">  1       21 0.94547325E-02 0.20660088E+02</pdfrwt>
<totfact> 0.71891510E+07</totfact>
</mgrwt>
</event>
<event>
 4    1  0.4353697E+006  0.4715115E+02  0.7546771E-02  0.1461343E+00
         21   -1    0    0  503  501  0.00000000000E+00  0.00000000000E+00  0.10923553753E+03  0.10923553753E+03  0.00000000000E+00 0. -1.
         21   -1    0    0  504  502 -0.00000000000E+00 -0.00000000000E+00 -0.39403140539E+02  0.39403140539E+02  0.00000000000E+00 0.  1.
         21    1    1    2  503  502 -0.92654036508E+01 -0.46231838764E+02 -0.16759899646E+02  0.50041231564E+02  0.00000000000E+00 0.  1.
         21    1    1    2  504  501  0.92654036508E+01  0.46231838764E+02  0.86592296640E+02  0.98597446507E+02  0.00000000000E+00 0. -1.
<mgrwt>
<rscale>  2 0.47151147E+02</rscale>
<asrwt>0</asrwt>
<pdfrwt beam="1">  1       21 0.16805467E-01 0.47151147E+02</pdfrwt>
<pdfrwt beam="2">  1       21 0.60620217E-02 0.47151147E+02</pdfrwt>
<totfact> 0.56165947E+06</totfact>
</mgrwt>
</event>
<event>
 4    1  0.4353697E+006  0.2729008E+02  0.7546771E-02  0.1630132E+00
         21   -1    0    0  504  501  0.00000000000E+00  0.00000000000E+00  0.14368632830E+03  0.14368632830E+03  0.00000000000E+00 0. -1.
         21   -1    0    0  503  502 -0.00000000000E+00 -0.00000000000E+00 -0.90769364967E+01  0.90769364967E+01  0.00000000000E+00 0.  1.
         21    1    1    2  503  501 -0.90456379809E+01 -0.25747322979E+02  0.17277611402E+02  0.32299598493E+02  0.00000000000E+00 0.  1.
         21    1    1    2  504  502  0.90456379809E+01  0.25747322979E+02  0.11733178040E+03  0.12046366630E+03  0.00000000000E+00 0. -1.
<mgrwt>
<rscale>  2 0.27290075E+02</rscale>
<asrwt>0</asrwt>
<pdfrwt beam="1">  1       21 0.22105587E-01 0.27290075E+02</pdfrwt>
<pdfrwt beam="2">  1       21 0.13964519E-02 0.27290075E+02</pdfrwt>
<totfact> 0.32423117E+07</totfact>
</mgrwt>
</event>
<event>
 4    1  0.4353697E+006  0.2050706E+02  0.7546771E-02  0.1735429E+00
         21   -1    0    0  503  501  0.00000000000E+00  0.00000000000E+00  0.53464064510E+02  0.53464064510E+02  0.00000000000E+00 0.  1.
         21   -1    0    0  504  502 -0.00000000000E+00 -0.00000000000E+00 -0.16279627576E+03  0.16279627576E+03  0.00000000000E+00 0. -1.
         21    1    1    2  503  502 -0.15257659684E+02 -0.13701947989E+02 -0.16015166993E+03  0.16145927332E+03  0.00000000000E+00 0. -1.
         21    1    1    2  504  501  0.15257659684E+02  0.13701947989E+02  0.50819458686E+02  0.54801066950E+02  0.00000000000E+00 0.  1.
<mgrwt>
<rscale>  2 0.20507061E+02</rscale>
<asrwt>0</asrwt>
<pdfrwt beam="1">  1       21 0.82252407E-02 0.20507061E+02</pdfrwt>
<pdfrwt beam="2">  1       21 0.25045581E-01 0.20507061E+02</pdfrwt>
<totfact> 0.15300715E+06</totfact>
</mgrwt>
</event>
<event>
 4    1  0.4353697E+006  0.2775301E+02  0.7546771E-02  0.1624343E+00
         21   -1    0    0  503  501  0.00000000000E+00  0.00000000000E+00  0.14373492528E+02  0.14373492528E+02  0.00000000000E+00 0.  1.
         21   -1    0    0  501  502 -0.00000000000E+00 -0.00000000000E+00 -0.55257369063E+02  0.55257369063E+02  0.00000000000E+00 0.  1.
         21    1    1    2  503  504 -0.25905116317E+02 -0.99576302884E+01 -0.26495473066E+02  0.38369773850E+02  0.00000000000E+00 0.  1.
         21    1    1    2  504  502  0.25905116317E+02  0.99576302884E+01 -0.14388403469E+02  0.31261087741E+02  0.00000000000E+00 0.  1.
<mgrwt>
<rscale>  2 0.27753008E+02</rscale>
<asrwt>0</asrwt>
<pdfrwt beam="1">  1       21 0.22113066E-02 0.27753008E+02</pdfrwt>
<pdfrwt beam="2">  1       21 0.85011336E-02 0.27753008E+02</pdfrwt>
<totfact> 0.81976945E+07</totfact>
</mgrwt>
</event>
<event>
 4    1  0.4353697E+006  0.8947181E+02  0.7546771E-02  0.1304136E+00
         21   -1    0    0  502  501  0.00000000000E+00  0.00000000000E+00  0.19301081896E+04  0.19301081896E+04  0.00000000000E+00 0. -1.
         21   -1    0    0  504  502 -0.00000000000E+00 -0.00000000000E+00 -0.58384052003E+01  0.58384052003E+01  0.00000000000E+00 0. -1.
         21    1    1    2  503  501  0.84894991794E+02 -0.28249706617E+02  0.14830541885E+04  0.14857506290E+04  0.00000000000E+00 0. -1.
         21    1    1    2  504  503 -0.84894991794E+02  0.28249706617E+02  0.44121559594E+03  0.45019596584E+03  0.00000000000E+00 0. -1.
<mgrwt>
<rscale>  2 0.89471814E+02</rscale>
<asrwt>0</asrwt>
<pdfrwt beam="1">  1       21 0.29693921E+00 0.89471814E+02</pdfrwt>
<pdfrwt beam="2">  1       21 0.89821772E-03 0.89471814E+02</pdfrwt>
<totfact> 0.17499411E+05</totfact>
</mgrwt>
</event>
<event>
 4    1  0.4353697E+006  0.2249447E+02  0.7546771E-02  0.1699838E+00
         21   -1    0    0  503  501  0.00000000000E+00  0.00000000000E+00  0.50775866802E+01  0.50775866802E+01  0.00000000000E+00 0. -1.
         21   -1    0    0  501  502 -0.00000000000E+00 -0.00000000000E+00 -0.53374964384E+03  0.53374964384E+03  0.00000000000E+00 0.  1.
         21    1    1    2  503  504  0.22365208719E+02 -0.24080703140E+01 -0.21371149797E+02  0.31027848899E+02  0.00000000000E+00 0. -1.
         21    1    1    2  504  502 -0.22365208719E+02  0.24080703140E+01 -0.50730090736E+03  0.50779938162E+03  0.00000000000E+00 0.  1.
<mgrwt>
<rscale>  2 0.22494474E+02</rscale>
<asrwt>0</asrwt>
<pdfrwt beam="1">  1       21 0.78116749E-03 0.22494474E+02</pdfrwt>
<pdfrwt beam="2">  1       21 0.82115297E-01 0.22494474E+02</pdfrwt>
<totfact> 0.60653956E+06</totfact>
</mgrwt>
</event>
<event>
 4    1  0.4353697E+006  0.2374287E+02  0.7546771E-02  0.1679744E+00
         21   -1    0    0  504  501  0.00000000000E+00  0.00000000000E+00  0.61072491102E+01  0.61072491102E+01  0.00000000000E+00 0.  1.
         21   -1    0    0  503  502 -0.00000000000E+00 -0.00000000000E+00 -0.11595393861E+03  0.11595393861E+03  0.00000000000E+00 0.  1.
         21    1    1    2  503  501  0.14692996514E+02  0.18650464969E+02 -0.82485879114E+02  0.85834982631E+02  0.00000000000E+00 0.  1.
         21    1    1    2  504  502 -0.14692996514E+02 -0.18650464969E+02 -0.27360810383E+02  0.36226205086E+02  0.00000000000E+00 0.  1.
<mgrwt>
<rscale>  2 0.23742872E+02</rscale>
<asrwt>0</asrwt>
<pdfrwt beam="1">  1       21 0.93957677E-03 0.23742872E+02</pdfrwt>
<pdfrwt beam="2">  1       21 0.17839068E-01 0.23742872E+02</pdfrwt>
<totfact> 0.83195653E+07</totfact>
</mgrwt>
</event>
<event>
 4    1  0.4353697E+006  0.2603998E+02  0.7546771E-02  0.1646498E+00
         21   -1    0    0  502  501  0.00000000000E+00  0.00000000000E+00  0.94340765206E+01  0.94340765206E+01  0.00000000000E+00 0. -1.
         21   -1    0    0  503  502 -0.00000000000E+00 -0.00000000000E+00 -0.14694406584E+03  0.14694406584E+03  0.00000000000E+00 0. -1.
         21    1    1    2  503  504 -0.87567415387E+01  0.24523458045E+02 -0.12464042663E+03  0.12733152189E+03  0.00000000000E+00 0. -1.
         21    1    1    2  504  501  0.87567415387E+01 -0.24523458045E+02 -0.12869562691E+02  0.29046620470E+02  0.00000000000E+00 0. -1.
<mgrwt>
<rscale>  2 0.26039979E+02</rscale>
<asrwt>0</asrwt>
<pdfrwt beam="1">  1       21 0.14513964E-02 0.26039979E+02</pdfrwt>
<pdfrwt beam="2">  1       21 0.22606779E-01 0.26039979E+02</pdfrwt>
<totfact> 0.29087871E+07</totfact>
</mgrwt>
</event>
<event>
 4    1  0.4353697E+006  0.2169011E+02  0.7546771E-02  0.1713667E+00
         21   -1    0    0  503  501  0.00000000000E+00  0.00000000000E+00  0.12662053145E+03  0.12662053145E+03  0.00000000000E+00 0. -1.
         21   -1    0    0  504  502 -0.00000000000E+00 -0.00000000000E+00 -0.26907517395E+02  0.26907517395E+02  0.00000000000E+00 0.  1.
         21    1    1    2  503  502  0.68168946238E+00  0.21679390886E+02 -0.21410747490E+02  0.30477545797E+02  0.00000000000E+00 0.  1.
         21    1    1    2  504  501 -0.68168946238E+00 -0.21679390886E+02  0.12112376155E+03  0.12305050305E+03  0.00000000000E+00 0. -1.
<mgrwt>
<rscale>  2 0.21690106E+02</rscale>
<asrwt>0</asrwt>
<pdfrwt beam="1">  1       21 0.19480081E-01 0.21690106E+02</pdfrwt>
<pdfrwt beam="2">  1       21 0.41396182E-02 0.21690106E+02</pdfrwt>
<totfact> 0.71896466E+06</totfact>
</mgrwt>
</event>
<event>
 4    1  0.4353697E+006  0.2075857E+02  0.7546771E-02  0.1730651E+00
         21   -1    0    0  504  501  0.00000000000E+00  0.00000000000E+00  0.54267424356E+02  0.54267424356E+02  0.00000000000E+00 0. -1.
         21   -1    0    0  503  502 -0.00000000000E+00 -0.00000000000E+00 -0.12531065494E+02  0.12531065494E+02  0.00000000000E+00 0.  1.
         21    1    1    2  503  501 -0.10372747907E+02  0.17981216494E+02  0.65339332373E+00  0.20768846106E+02  0.00000000000E+00 0.  1.
         21    1    1    2  504  502  0.10372747907E+02 -0.17981216494E+02  0.41082965538E+02  0.46029643744E+02  0.00000000000E+00 0. -1.
<mgrwt>
<rscale>  2 0.20758566E+02</rscale>
<asrwt>0</asrwt>
<pdfrwt beam="1">  1       21 0.83488344E-02 0.20758566E+02</pdfrwt>
<pdfrwt beam="2">  1       21 0.19278563E-02 0.20758566E+02</pdfrwt>
<totfact> 0.96359159E+07</totfact>
</mgrwt>
</event>
<event>
 4    1  0.4353697E+006  0.2628719E+02  0.7546771E-02  0.1643173E+00
         21   -1    0    0  502  501  0.00000000000E+00  0.00000000000E+00  0.93508182375E+03  0.93508182375E+03  0.00000000000E+00 0. -1.
         21   -1    0    0  503  502 -0.00000000000E+00 -0.00000000000E+00 -0.71655589149E+02  0.71655589149E+02  0.00000000000E+00 0. -1.
         21    1    1    2  503  504 -0.26088766105E+02 -0.32237360962E+01 -0.69053220379E+02  0.73887505277E+02  0.00000000000E+00 0. -1.
         21    1    1    2  504  501  0.26088766105E+02  0.32237360962E+01  0.93247945498E+03  0.93284990762E+03  0.00000000000E+00 0. -1.
<mgrwt>
<rscale>  2 0.26287187E+02</rscale>
<asrwt>0</asrwt>
<pdfrwt beam="1">  1       21 0.14385873E+00 0.26287187E+02</pdfrwt>
<pdfrwt beam="2">  1       21 0.11023937E-01 0.26287187E+02</pdfrwt>
<totfact> 0.27649604E+04</totfact>
</mgrwt>
</event>
<event>
 4    1  0.4353697E+006  0.2275209E+02  0.7546771E-02  0.1695561E+00
         21   -1    0    0  504  501  0.00000000000E+00  0.00000000000E+00  0.69804025667E+01  0.69804025667E+01  0.00000000000E+00 0.  1.
         21   -1    0    0  503  502 -0.00000000000E+00 -0.00000000000E+00 -0.11087900045E+03  0.11087900045E+03  0.00000000000E+00 0.  1.
         21    1    1    2  503  501 -0.19071061914E+02 -0.12407739172E+02 -0.85862037417E+02  0.88825372858E+02  0.00000000000E+00 0.  1.
         21    1    1    2  504  502  0.19071061914E+02  0.12407739172E+02 -0.18036560470E+02  0.29034030163E+02  0.00000000000E+00 0.  1.
<mgrwt>
<rscale>  2 0.22752085E+02</rscale>
<asrwt>0</asrwt>
<pdfrwt beam="1">  1       21 0.10739081E-02 0.22752085E+02</pdfrwt>
<pdfrwt beam="2">  1       21 0.17058307E-01 0.22752085E+02</pdfrwt>
<totfact> 0.72681801E+07</totfact>
</mgrwt>
</event>
<event>
 4    1  0.4353697E+006  0.2248220E+02  0.7546771E-02  0.1700044E+00
         21   -1    0    0  504  501  0.00000000000E+00  0.00000000000E+00  0.13436763193E+02  0.13436763193E+02  0.00000000000E+00 0. -1.
         21   -1    0    0  503  502 -0.00000000000E+00 -0.00000000000E+00 -0.27430705451E+03  0.27430705451E+03  0.00000000000E+00 0.  1.
         21    1    1    2  503  501 -0.17440992912E+02 -0.14186646612E+02  0.32082887404E+01  0.22709960205E+02  0.00000000000E+00 0. -1.
         21    1    1    2  504  502  0.17440992912E+02  0.14186646612E+02 -0.26407858006E+03  0.26503385750E+03  0.00000000000E+00 0.  1.
<mgrwt>
<rscale>  2 0.22482197E+02</rscale>
<asrwt>0</asrwt>
<pdfrwt beam="1">  1       21 0.20671945E-02 0.22482197E+02</pdfrwt>
<pdfrwt beam="2">  1       21 0.42201082E-01 0.22482197E+02</pdfrwt>
<totfact> 0.52534353E+06</totfact>
</mgrwt>
</event>
<event>
 4    1  0.4353697E+006  0.2065161E+02  0.7546771E-02  0.1732672E+00
         21   -1    0    0  502  501  0.00000000000E+00  0.00000000000E+00  0.17838000839E+02  0.17838000839E+02  0.00000000000E+00 0.  1.
         21   -1    0    0  504  502 -0.00000000000E+00 -0.00000000000E+00 -0.16670107147E+03  0.16670107147E+03  0.00000000000E+00 0.  1.
         21    1    1    2  503  501  0.19595983523E+02 -0.65181555896E+01  0.10965181701E+02  0.23382132757E+02  0.00000000000E+00 0.  1.
         21    1    1    2  504  503 -0.19595983523E+02  0.65181555896E+01 -0.15982825233E+03  0.16115693955E+03  0.00000000000E+00 0.  1.
<mgrwt>
<rscale>  2 0.20651608E+02</rscale>
<asrwt>0</asrwt>
<pdfrwt beam="1">  1       21 0.27443079E-02 0.20651608E+02</pdfrwt>
<pdfrwt beam="2">  1       21 0.25646318E-01 0.20651608E+02</pdfrwt>
<totfact> 0.83435310E+06</totfact>
</mgrwt>
</event>
<event>
 4    1  0.4353697E+006  0.2329890E+02  0.7546771E-02  0.1686710E+00
         21   -1    0    0  504  501  0.00000000000E+00  0.00000000000E+00  0.25156114278E+02  0.25156114278E+02  0.00000000000E+00 0. -1.
         21   -1    0    0  501  502 -0.00000000000E+00 -0.00000000000E+00 -0.49463380690E+02  0.49463380690E+02  0.00000000000E+00 0. -1.
         21    1    1    2  503  502 -0.22606076474E+02 -0.56395171595E+01 -0.40166815244E+02  0.46435028741E+02  0.00000000000E+00 0. -1.
         21    1    1    2  504  503  0.22606076474E+02  0.56395171595E+01  0.15859548832E+02  0.28184466227E+02  0.00000000000E+00 0. -1.
<mgrwt>
<rscale>  2 0.23298902E+02</rscale>
<asrwt>0</asrwt>
<pdfrwt beam="1">  1       21 0.38701715E-02 0.23298902E+02</pdfrwt>
<pdfrwt beam="2">  1       21 0.76097508E-02 0.23298902E+02</pdfrwt>
<totfact> 0.39270166E+07</totfact>
</mgrwt>
</event>
<event>
 4    1  0.4353697E+006  0.2160584E+02  0.7546771E-02  0.1715159E+00
         21   -1    0    0  504  501  0.00000000000E+00  0.00000000000E+00  0.48821727059E+03  0.48821727059E+03  0.00000000000E+00 0. -1.
         21   -1    0    0  503  502 -0.00000000000E+00 -0.00000000000E+00 -0.12153062727E+01  0.12153062727E+01  0.00000000000E+00 0. -1.
         21    1    1    2  503  501 -0.21445474829E+02  0.26274968015E+01  0.13049656998E+03  0.13227307703E+03  0.00000000000E+00 0. -1.
         21    1    1    2  504  502  0.21445474829E+02 -0.26274968015E+01  0.35650539433E+03  0.35715949983E+03  0.00000000000E+00 0. -1.
<mgrwt>
<rscale>  2 0.21605836E+02</rscale>
<asrwt>0</asrwt>
<pdfrwt beam="1">  1       21 0.75110193E-01 0.21605836E+02</pdfrwt>
<pdfrwt beam="2">  1       21 0.18697059E-03 0.21605836E+02</pdfrwt>
<totfact> 0.58769738E+07</totfact>
</mgrwt>
</event>
<event>
 4    1  0.4353697E+006  0.2227392E+02  0.7546771E-02  0.1703557E+00
         21   -1    0    0  503  501  0.00000000000E+00  0.00000000000E+00  0.86503049643E+02  0.86503049643E+02  0.00000000000E+00 0.  1.
         21   -1    0    0  501  502 -0.00000000000E+00 -0.00000000000E+00 -0.14404281469E+02  0.14404281469E+02  0.00000000000E+00 0. -1.
         21    1    1    2  503  504 -0.15254728242E+02  0.16230238667E+02  0.75190129908E+02  0.78419914668E+02  0.00000000000E+00 0.  1.
         21    1    1    2  504  502  0.15254728242E+02 -0.16230238667E+02 -0.30913617336E+01  0.22487416444E+02  0.00000000000E+00 0. -1.
<mgrwt>
<rscale>  2 0.22273917E+02</rscale>
<asrwt>0</asrwt>
<pdfrwt beam="1">  1       21 0.13308161E-01 0.22273917E+02</pdfrwt>
<pdfrwt beam="2">  1       21 0.22160434E-02 0.22273917E+02</pdfrwt>
<totfact> 0.36657633E+07</totfact>
</mgrwt>
</event>
<event>
 4    1  0.4353697E+006  0.2813696E+02  0.7546771E-02  0.1619645E+00
         21   -1    0    0  504  501  0.00000000000E+00  0.00000000000E+00  0.32063864936E+03  0.32063864936E+03  0.00000000000E+00 0.  1.
         21   -1    0    0  501  502 -0.00000000000E+00 -0.00000000000E+00 -0.28404654699E+01  0.28404654699E+01  0.00000000000E+00 0. -1.
         21    1    1    2  503  502  0.37105644938E+01  0.27891224999E+02  0.10041704566E+03  0.10428457115E+03  0.00000000000E+00 0. -1.
         21    1    1    2  504  503 -0.37105644938E+01 -0.27891224999E+02  0.21738113823E+03  0.21919454368E+03  0.00000000000E+00 0.  1.
<mgrwt>
<rscale>  2 0.28136964E+02</rscale>
<asrwt>0</asrwt>
<pdfrwt beam="1">  1       21 0.49328994E-01 0.28136964E+02</pdfrwt>
<pdfrwt beam="2">  1       21 0.43699494E-03 0.28136964E+02</pdfrwt>
<totfact> 0.42053183E+07</totfact>
</mgrwt>
</event>
<event>
 4    1  0.4353697E+006  0.2212414E+02  0.7546771E-02  0.1706114E+00
         21   -1    0    0  504  501  0.00000000000E+00  0.00000000000E+00  0.85750760179E+00  0.85750760179E+00  0.00000000000E+00 0. -1.
         21   -1    0    0  501  502 -0.00000000000E+00 -0.00000000000E+00 -0.91567424404E+03  0.91567424404E+03  0.00000000000E+00 0. -1.
         21    1    1    2  503  502 -0.15748872209E+02 -0.15538679194E+02 -0.73864277457E+03  0.73897403605E+03  0.00000000000E+00 0. -1.
         21    1    1    2  504  503  0.15748872209E+02  0.15538679194E+02 -0.17617396186E+03  0.17755771559E+03  0.00000000000E+00 0. -1.
<mgrwt>
<rscale>  2 0.22124139E+02</rscale>
<asrwt>0</asrwt>
<pdfrwt beam="1">  1       21 0.13192335E-03 0.22124139E+02</pdfrwt>
<pdfrwt beam="2">  1       21 0.14087392E+00 0.22124139E+02</pdfrwt>
<totfact> 0.24487552E+07</totfact>
</mgrwt>
</event>
<event>
 4    1  0.4353697E+006  0.2699390E+02  0.7546771E-02  0.1633911E+00
         21   -1    0    0  503  501  0.00000000000E+00  0.00000000000E+00  0.15004129481E+02  0.15004129481E+02  0.00000000000E+00 0.  1.
         21   -1    0    0  504  502 -0.00000000000E+00 -0.00000000000E+00 -0.21481346756E+03  0.21481346756E+03  0.00000000000E+00 0.  1.
         21    1    1    2  503  502 -0.23683675095E+02 -0.12952004914E+02 -0.20099317110E+03  0.20279774586E+03  0.00000000000E+00 0.  1.
         21    1    1    2  504  501  0.23683675095E+02  0.12952004914E+02  0.11838330204E+01  0.27019851182E+02  0.00000000000E+00 0.  1.
<mgrwt>
<rscale>  2 0.26993905E+02</rscale>
<asrwt>0</asrwt>
<pdfrwt beam="1">  1       21 0.23083276E-02 0.26993905E+02</pdfrwt>
<pdfrwt beam="2">  1       21 0.33048225E-01 0.26993905E+02</pdfrwt>
<totfact> 0.72095846E+06</totfact>
</mgrwt>
</event>
<event>
 4    1  0.4353697E+006  0.2856965E+02  0.7546771E-02  0.1614460E+00
         21   -1    0    0  502  501  0.00000000000E+00  0.00000000000E+00  0.10065217820E+03  0.10065217820E+03  0.00000000000E+00 0. -1.
         21   -1    0    0  504  502 -0.00000000000E+00 -0.00000000000E+00 -0.11111540451E+02  0.11111540451E+02  0.00000000000E+00 0. -1.
         21    1    1    2  503  501 -0.15481688272E+02 -0.24011290024E+02  0.73817375271E+02  0.79153203424E+02  0.00000000000E+00 0. -1.
         21    1    1    2  504  503  0.15481688272E+02  0.24011290024E+02  0.15723262476E+02  0.32610515225E+02  0.00000000000E+00 0. -1.
<mgrwt>
<rscale>  2 0.28569647E+02</rscale>
<asrwt>0</asrwt>
<pdfrwt beam="1">  1       21 0.15484950E-01 0.28569647E+02</pdfrwt>
<pdfrwt beam="2">  1       21 0.17094678E-02 0.28569647E+02</pdfrwt>
<totfact> 0.44743027E+07</totfact>
</mgrwt>
</event>
<event>
 4    1  0.4353697E+006  0.2598677E+02  0.7546771E-02  0.1647220E+00
         21   -1    0    0  503  501  0.00000000000E+00  0.00000000000E+00  0.17800309284E+01  0.17800309284E+01  0.00000000000E+00 0. -1.
         21   -1    0    0  504  502 -0.00000000000E+00 -0.00000000000E+00 -0.39049333563E+03  0.39049333563E+03  0.00000000000E+00 0. -1.
         21    1    1    2  503  502  0.16492425237E+02 -0.20082631421E+02 -0.16127174957E+03  0.16335204126E+03  0.00000000000E+00 0. -1.
         21    1    1    2  504  501 -0.16492425237E+02  0.20082631421E+02 -0.22744155513E+03  0.22892132529E+03  0.00000000000E+00 0. -1.
<mgrwt>
<rscale>  2 0.25986769E+02</rscale>
<asrwt>0</asrwt>
<pdfrwt beam="1">  1       21 0.27385057E-03 0.25986769E+02</pdfrwt>
<pdfrwt beam="2">  1       21 0.60075973E-01 0.25986769E+02</pdfrwt>
<totfact> 0.55602803E+07</totfact>
</mgrwt>
</event>
<event>
 4    1  0.4353697E+006  0.2444551E+02  0.7546771E-02  0.1669096E+00
         21   -1    0    0  503  501  0.00000000000E+00  0.00000000000E+00  0.41368112455E+01  0.41368112455E+01  0.00000000000E+00 0.  1.
         21   -1    0    0  501  502 -0.00000000000E+00 -0.00000000000E+00 -0.32498803194E+03  0.32498803194E+03  0.00000000000E+00 0. -1.
         21    1    1    2  503  504 -0.90857898437E+01  0.22694298500E+02 -0.37773390493E+02  0.44993463868E+02  0.00000000000E+00 0.  1.
         21    1    1    2  504  502  0.90857898437E+01 -0.22694298500E+02 -0.28307783020E+03  0.28413137932E+03  0.00000000000E+00 0. -1.
<mgrwt>
<rscale>  2 0.24445506E+02</rscale>
<asrwt>0</asrwt>
<pdfrwt beam="1">  1       21 0.63643240E-03 0.24445506E+02</pdfrwt>
<pdfrwt beam="2">  1       21 0.49998167E-01 0.24445506E+02</pdfrwt>
<totfact> 0.22799155E+07</totfact>
</mgrwt>
</event>
<event>
 4    1  0.4353697E+006  0.2510419E+02  0.7546771E-02  0.1659510E+00
         21   -1    0    0  503  501  0.00000000000E+00  0.00000000000E+00  0.69396905695E+03  0.69396905695E+03  0.00000000000E+00 0.  1.
         21   -1    0    0  504  502 -0.00000000000E+00 -0.00000000000E+00 -0.91162082516E+01  0.91162082516E+01  0.00000000000E+00 0.  1.
         21    1    1    2  503  502  0.61824759409E+01 -0.24330999465E+02  0.88530478186E+01  0.26619485333E+02  0.00000000000E+00 0.  1.
         21    1    1    2  504  501 -0.61824759409E+01  0.24330999465E+02  0.67599980088E+03  0.67646577987E+03  0.00000000000E+00 0.  1.
<mgrwt>
<rscale>  2 0.25104194E+02</rscale>
<asrwt>0</asrwt>
<pdfrwt beam="1">  1       21 0.10676443E+00 0.25104194E+02</pdfrwt>
<pdfrwt beam="2">  1       21 0.14024941E-02 0.25104194E+02</pdfrwt>
<totfact> 0.14431991E+06</totfact>
</mgrwt>
</event>
<event>
 4    1  0.4353697E+006  0.2101096E+02  0.7546771E-02  0.1725940E+00
         21   -1    0    0  503  501  0.00000000000E+00  0.00000000000E+00  0.33967983721E+03  0.33967983721E+03  0.00000000000E+00 0.  1.
         21   -1    0    0  504  502 -0.00000000000E+00 -0.00000000000E+00 -0.13333680828E+01  0.13333680828E+01  0.00000000000E+00 0.  1.
         21    1    1    2  503  502 -0.20182119718E+02  0.58431426058E+01  0.19629296371E+03  0.19741425449E+03  0.00000000000E+00 0.  1.
         21    1    1    2  504  501  0.20182119718E+02 -0.58431426058E+01  0.14205350542E+03  0.14359895081E+03  0.00000000000E+00 0.  1.
<mgrwt>
<rscale>  2 0.21010956E+02</rscale>
<asrwt>0</asrwt>
<pdfrwt beam="1">  1       21 0.52258368E-01 0.21010956E+02</pdfrwt>
<pdfrwt beam="2">  1       21 0.20513382E-03 0.21010956E+02</pdfrwt>
<totfact> 0.10575610E+08</totfact>
</mgrwt>
</event>
<event>
 4    1  0.4353697E+006  0.2024995E+02  0.7546771E-02  0.1740403E+00
         21   -1    0    0  504  501  0.00000000000E+00  0.00000000000E+00  0.39061910272E+03  0.39061910272E+03  0.00000000000E+00 0. -1.
         21   -1    0    0  503  502 -0.00000000000E+00 -0.00000000000E+00 -0.39707284110E+02  0.39707284110E+02  0.00000000000E+00 0. -1.
         21    1    1    2  503  501 -0.39277586791E+01 -0.19865372521E+02  0.38775583876E+03  0.38828423971E+03  0.00000000000E+00 0. -1.
         21    1    1    2  504  502  0.39277586791E+01  0.19865372521E+02 -0.36844020151E+02  0.42042147121E+02  0.00000000000E+00 0. -1.
<mgrwt>
<rscale>  2 0.20249946E+02</rscale>
<asrwt>0</asrwt>
<pdfrwt beam="1">  1       21 0.60095244E-01 0.20249946E+02</pdfrwt>
<pdfrwt beam="2">  1       21 0.61088132E-02 0.20249946E+02</pdfrwt>
<totfact> 0.47990702E+05</totfact>
</mgrwt>
</event>
<event>
 4    1  0.4353697E+006  0.2046817E+02  0.7546771E-02  0.1736175E+00
         21   -1    0    0  504  501  0.00000000000E+00  0.00000000000E+00  0.44601979195E+02  0.44601979195E+02  0.00000000000E+00 0.  1.
         21   -1    0    0  503  502 -0.00000000000E+00 -0.00000000000E+00 -0.29093503200E+02  0.29093503200E+02  0.00000000000E+00 0. -1.
         21    1    1    2  503  501  0.17582845718E+02 -0.10478049167E+02  0.38075803675E+02  0.43228610935E+02  0.00000000000E+00 0.  1.
         21    1    1    2  504  502 -0.17582845718E+02  0.10478049167E+02 -0.22567327680E+02  0.30466871459E+02  0.00000000000E+00 0. -1.
<mgrwt>
<rscale>  2 0.20468170E+02</rscale>
<asrwt>0</asrwt>
<pdfrwt beam="1">  1       21 0.68618430E-02 0.20468170E+02</pdfrwt>
<pdfrwt beam="2">  1       21 0.44759236E-02 0.20468170E+02</pdfrwt>
<totfact> 0.35740066E+07</totfact>
</mgrwt>
</event>
<event>
 4    1  0.4353697E+006  0.2034136E+02  0.7546771E-02  0.1738624E+00
         21   -1    0    0  502  501  0.00000000000E+00  0.00000000000E+00  0.10663545179E+03  0.10663545179E+03  0.00000000000E+00 0.  1.
         21   -1    0    0  503  502 -0.00000000000E+00 -0.00000000000E+00 -0.25199844611E+02  0.25199844611E+02  0.00000000000E+00 0. -1.
         21    1    1    2  503  504  0.19886601067E+02 -0.42771574377E+01 -0.19912865641E+02  0.28465649401E+02  0.00000000000E+00 0. -1.
         21    1    1    2  504  501 -0.19886601067E+02  0.42771574377E+01  0.10134847282E+03  0.10336964700E+03  0.00000000000E+00 0.  1.
<mgrwt>
<rscale>  2 0.20341361E+02</rscale>
<asrwt>0</asrwt>
<pdfrwt beam="1">  1       21 0.16405454E-01 0.20341361E+02</pdfrwt>
<pdfrwt beam="2">  1       21 0.38768992E-02 0.20341361E+02</pdfrwt>
<totfact> 0.10579442E+07</totfact>
</mgrwt>
</event>
<event>
 4    1  0.4353697E+006  0.2923596E+02  0.7546771E-02  0.1606691E+00
         21   -1    0    0  502  501  0.00000000000E+00  0.00000000000E+00  0.51123099391E+01  0.51123099391E+01  0.00000000000E+00 0. -1.
         21   -1    0    0  504  502 -0.00000000000E+00 -0.00000000000E+00 -0.18284706142E+03  0.18284706142E+03  0.00000000000E+00 0. -1.
         21    1    1    2  503  501  0.11352771390E+02 -0.26941711066E+02 -0.61369013499E+02  0.67977180224E+02  0.00000000000E+00 0. -1.
         21    1    1    2  504  503 -0.11352771390E+02  0.26941711066E+02 -0.11636573798E+03  0.11998219114E+03  0.00000000000E+00 0. -1.
<mgrwt>
<rscale>  2 0.29235958E+02</rscale>
<asrwt>0</asrwt>
<pdfrwt beam="1">  1       21 0.78650916E-03 0.29235958E+02</pdfrwt>
<pdfrwt beam="2">  1       21 0.28130319E-01 0.29235958E+02</pdfrwt>
<totfact> 0.50903912E+07</totfact>
</mgrwt>
</event>
<event>
 4    1  0.4353697E+006  0.2913414E+02  0.7546771E-02  0.1607862E+00
         21   -1    0    0  502  501  0.00000000000E+00  0.00000000000E+00  0.26936504748E+03  0.26936504748E+03  0.00000000000E+00 0.  1.
         21   -1    0    0  504  502 -0.00000000000E+00 -0.00000000000E+00 -0.39683461777E+01  0.39683461777E+01  0.00000000000E+00 0.  1.
         21    1    1    2  503  501  0.28660564808E+02  0.52316435079E+01  0.19471846021E+03  0.19688594875E+03  0.00000000000E+00 0.  1.
         21    1    1    2  504  503 -0.28660564808E+02 -0.52316435079E+01  0.70678241093E+02  0.76447444908E+02  0.00000000000E+00 0.  1.
<mgrwt>
<rscale>  2 0.29134139E+02</rscale>
<asrwt>0</asrwt>
<pdfrwt beam="1">  1       21 0.41440762E-01 0.29134139E+02</pdfrwt>
<pdfrwt beam="2">  1       21 0.61051501E-03 0.29134139E+02</pdfrwt>
<totfact> 0.36085742E+07</totfact>
</mgrwt>
</event>
<event>
 4    1  0.4353697E+006  0.2334197E+02  0.7546771E-02  0.1686026E+00
         21   -1    0    0  503  501  0.00000000000E+00  0.00000000000E+00  0.49145943875E+03  0.49145943875E+03  0.00000000000E+00 0.  1.
         21   -1    0    0  504  502 -0.00000000000E+00 -0.00000000000E+00 -0.62228206708E+01  0.62228206708E+01  0.00000000000E+00 0. -1.
         21    1    1    2  503  502  0.22782998876E+02 -0.50776401431E+01  0.17029832628E+02  0.28893990146E+02  0.00000000000E+00 0. -1.
         21    1    1    2  504  501 -0.22782998876E+02  0.50776401431E+01  0.46820678545E+03  0.46878826928E+03  0.00000000000E+00 0.  1.
<mgrwt>
<rscale>  2 0.23341968E+02</rscale>
<asrwt>0</asrwt>
<pdfrwt beam="1">  1       21 0.75609114E-01 0.23341968E+02</pdfrwt>
<pdfrwt beam="2">  1       21 0.95735741E-03 0.23341968E+02</pdfrwt>
<totfact> 0.53479482E+06</totfact>
</mgrwt>
</event>
<event>
 4    1  0.4353697E+006  0.2279850E+02  0.7546771E-02  0.1694797E+00
         21   -1    0    0  502  501  0.00000000000E+00  0.00000000000E+00  0.17261654738E+03  0.17261654738E+03  0.00000000000E+00 0. -1.
         21   -1    0    0  503  502 -0.00000000000E+00 -0.00000000000E+00 -0.36030610354E+01  0.36030610354E+01  0.00000000000E+00 0. -1.
         21    1    1    2  503  504  0.22564329950E+02 -0.32592211488E+01  0.48794049147E+02  0.53857504034E+02  0.00000000000E+00 0. -1.
         21    1    1    2  504  501 -0.22564329950E+02  0.32592211488E+01  0.12021943719E+03  0.12236210438E+03  0.00000000000E+00 0. -1.
<mgrwt>
<rscale>  2 0.22798498E+02</rscale>
<asrwt>0</asrwt>
<pdfrwt beam="1">  1       21 0.26556385E-01 0.22798498E+02</pdfrwt>
<pdfrwt beam="2">  1       21 0.55431722E-03 0.22798498E+02</pdfrwt>
<totfact> 0.89645306E+07</totfact>
</mgrwt>
</event>
<event>
 4    1  0.4353697E+006  0.2588484E+02  0.7546771E-02  0.1648609E+00
         21   -1    0    0  503  501  0.00000000000E+00  0.00000000000E+00  0.38879024206E+03  0.38879024206E+03  0.00000000000E+00 0. -1.
         21   -1    0    0  504  502 -0.00000000000E+00 -0.00000000000E+00 -0.17092979914E+03  0.17092979914E+03  0.00000000000E+00 0. -1.
         21    1    1    2  503  502  0.17084069929E+02  0.19446321303E+02 -0.16951541469E+03  0.17148032154E+03  0.00000000000E+00 0. -1.
         21    1    1    2  504  501 -0.17084069929E+02 -0.19446321303E+02  0.38737585761E+03  0.38823971966E+03  0.00000000000E+00 0. -1.
<mgrwt>
<rscale>  2 0.25884838E+02</rscale>
<asrwt>0</asrwt>
<pdfrwt beam="1">  1       21 0.59813883E-01 0.25884838E+02</pdfrwt>
<pdfrwt beam="2">  1       21 0.26296892E-01 0.25884838E+02</pdfrwt>
<totfact> 0.41383948E+04</totfact>
</mgrwt>
</event>
<event>
 4    1  0.4353697E+006  0.2474713E+02  0.7546771E-02  0.1664661E+00
         21   -1    0    0  504  501  0.00000000000E+00  0.00000000000E+00  0.35563737181E+02  0.35563737181E+02  0.00000000000E+00 0.  1.
         21   -1    0    0  503  502 -0.00000000000E+00 -0.00000000000E+00 -0.56334206193E+02  0.56334206193E+02  0.00000000000E+00 0.  1.
         21    1    1    2  503  501 -0.20009487012E+02 -0.14561618759E+02  0.27902086195E+02  0.37295398180E+02  0.00000000000E+00 0.  1.
         21    1    1    2  504  502  0.20009487012E+02  0.14561618759E+02 -0.48672555207E+02  0.54602545195E+02  0.00000000000E+00 0.  1.
<mgrwt>
<rscale>  2 0.24747127E+02</rscale>
<asrwt>0</asrwt>
<pdfrwt beam="1">  1       21 0.54713442E-02 0.24747127E+02</pdfrwt>
<pdfrwt beam="2">  1       21 0.86668009E-02 0.24747127E+02</pdfrwt>
<totfact> 0.18570428E+07</totfact>
</mgrwt>
</event>
<event>
 4    1  0.4353697E+006  0.2311339E+02  0.7546771E-02  0.1689679E+00
         21   -1    0    0  504  501  0.00000000000E+00  0.00000000000E+00  0.40906588554E+02  0.40906588554E+02  0.00000000000E+00 0. -1.
         21   -1    0    0  503  502 -0.00000000000E+00 -0.00000000000E+00 -0.16101794707E+02  0.16101794707E+02  0.00000000000E+00 0. -1.
         21    1    1    2  503  501 -0.22067361009E+01  0.23007808255E+02  0.12835181261E-01  0.23113396324E+02  0.00000000000E+00 0. -1.
         21    1    1    2  504  502  0.22067361009E+01 -0.23007808255E+02  0.24791958666E+02  0.33894986936E+02  0.00000000000E+00 0. -1.
<mgrwt>
<rscale>  2 0.23113393E+02</rscale>
<asrwt>0</asrwt>
<pdfrwt beam="1">  1       21 0.62933213E-02 0.23113393E+02</pdfrwt>
<pdfrwt beam="2">  1       21 0.24771992E-02 0.23113393E+02</pdfrwt>
<totfact> 0.10689406E+08</totfact>
</mgrwt>
</event>
<event>
 4    1  0.4353697E+006  0.2512624E+02  0.7546771E-02  0.1659195E+00
         21   -1    0    0  503  501  0.00000000000E+00  0.00000000000E+00  0.22301834289E+02  0.22301834289E+02  0.00000000000E+00 0.  1.
         21   -1    0    0  501  502 -0.00000000000E+00 -0.00000000000E+00 -0.14219142531E+03  0.14219142531E+03  0.00000000000E+00 0.  1.
         21    1    1    2  503  504 -0.18032360416E+02 -0.17497488608E+02  0.13660828771E+02  0.28599761755E+02  0.00000000000E+00 0.  1.
         21    1    1    2  504  502  0.18032360416E+02  0.17497488608E+02 -0.13355041979E+03  0.13589349784E+03  0.00000000000E+00 0.  1.
<mgrwt>
<rscale>  2 0.25126244E+02</rscale>
<asrwt>0</asrwt>
<pdfrwt beam="1">  1       21 0.34310514E-02 0.25126244E+02</pdfrwt>
<pdfrwt beam="2">  1       21 0.21875604E-01 0.25126244E+02</pdfrwt>
<totfact> 0.80927452E+06</totfact>
</mgrwt>
</event>
<event>
 4    1  0.4353697E+006  0.2362501E+02  0.7546771E-02  0.1681575E+00
         21   -1    0    0  504  501  0.00000000000E+00  0.00000000000E+00  0.44327431581E+01  0.44327431581E+01  0.00000000000E+00 0. -1.
         21   -1    0    0  503  502 -0.00000000000E+00 -0.00000000000E+00 -0.20517185211E+03  0.20517185211E+03  0.00000000000E+00 0.  1.
         21    1    1    2  503  501  0.16103149526E+02 -0.17286684857E+02 -0.35231431158E+02  0.42419272029E+02  0.00000000000E+00 0. -1.
         21    1    1    2  504  502 -0.16103149526E+02  0.17286684857E+02 -0.16550767779E+03  0.16718532324E+03  0.00000000000E+00 0.  1.
<mgrwt>
<rscale>  2 0.23625006E+02</rscale>
<asrwt>0</asrwt>
<pdfrwt beam="1">  1       21 0.68196061E-03 0.23625006E+02</pdfrwt>
<pdfrwt beam="2">  1       21 0.31564894E-01 0.23625006E+02</pdfrwt>
<totfact> 0.48641010E+07</totfact>
</mgrwt>
</event>
<event>
 4    1  0.4353697E+006  0.3278979E+02  0.7546771E-02  0.1569152E+00
         21   -1    0    0  502  501  0.00000000000E+00  0.00000000000E+00  0.94147865206E+02  0.94147865206E+02  0.00000000000E+00 0. -1.
         21   -1    0    0  503  502 -0.00000000000E+00 -0.00000000000E+00 -0.16402716799E+03  0.16402716799E+03  0.00000000000E+00 0.  1.
         21    1    1    2  503  504  0.24017744810E+02 -0.22323039565E+02 -0.15945239298E+03  0.16278893018E+03  0.00000000000E+00 0.  1.
         21    1    1    2  504  501 -0.24017744810E+02  0.22323039565E+02  0.89573090198E+02  0.95386103017E+02  0.00000000000E+00 0. -1.
<mgrwt>
<rscale>  2 0.32789787E+02</rscale>
<asrwt>0</asrwt>
<pdfrwt beam="1">  1       21 0.14484287E-01 0.32789787E+02</pdfrwt>
<pdfrwt beam="2">  1       21 0.25234949E-01 0.32789787E+02</pdfrwt>
<totfact> 0.60957738E+05</totfact>
</mgrwt>
</event>
<event>
 4    1  0.4353697E+006  0.2280997E+02  0.7546771E-02  0.1694609E+00
         21   -1    0    0  503  501  0.00000000000E+00  0.00000000000E+00  0.35009957583E+03  0.35009957583E+03  0.00000000000E+00 0.  1.
         21   -1    0    0  504  502 -0.00000000000E+00 -0.00000000000E+00 -0.56251045855E+01  0.56251045855E+01  0.00000000000E+00 0. -1.
         21    1    1    2  503  502 -0.22370003518E+02 -0.44584472937E+01  0.32480573773E+03  0.32560568495E+03  0.00000000000E+00 0.  1.
         21    1    1    2  504  501  0.22370003518E+02  0.44584472937E+01  0.19668733510E+02  0.30118995460E+02  0.00000000000E+00 0. -1.
<mgrwt>
<rscale>  2 0.22809972E+02</rscale>
<asrwt>0</asrwt>
<pdfrwt beam="1">  1       21 0.53861456E-01 0.22809972E+02</pdfrwt>
<pdfrwt beam="2">  1       21 0.86540098E-03 0.22809972E+02</pdfrwt>
<totfact> 0.12295640E+07</totfact>
</mgrwt>
</event>
<event>
 4    1  0.4353697E+006  0.2110078E+02  0.7546771E-02  0.1724284E+00
         21   -1    0    0  504  501  0.00000000000E+00  0.00000000000E+00  0.23959662350E+02  0.23959662350E+02  0.00000000000E+00 0.  1.
         21   -1    0    0  503  502 -0.00000000000E+00 -0.00000000000E+00 -0.26094355958E+02  0.26094355958E+02  0.00000000000E+00 0.  1.
         21    1    1    2  503  501 -0.12162327348E+02  0.17242991660E+02 -0.14494815679E+02  0.25599661120E+02  0.00000000000E+00 0.  1.
         21    1    1    2  504  502  0.12162327348E+02 -0.17242991660E+02  0.12360122071E+02  0.24454357189E+02  0.00000000000E+00 0.  1.
<mgrwt>
<rscale>  2 0.21100781E+02</rscale>
<asrwt>0</asrwt>
<pdfrwt beam="1">  1       21 0.36861019E-02 0.21100781E+02</pdfrwt>
<pdfrwt beam="2">  1       21 0.40145163E-02 0.21100781E+02</pdfrwt>
<totfact> 0.11462213E+08</totfact>
</mgrwt>
</event>
<event>
 4    1  0.4353697E+006  0.4502400E+02  0.7546771E-02  0.1474192E+00
         21   -1    0    0  504  501  0.00000000000E+00  0.00000000000E+00  0.35456922479E+03  0.35456922479E+03  0.00000000000E+00 0. -1.
         21   -1    0    0  501  502 -0.00000000000E+00 -0.00000000000E+00 -0.95278048273E+01  0.95278048273E+01  0.00000000000E+00 0. -1.
         21    1    1    2  503  502 -0.41781543017E+02  0.16776861728E+02  0.57391666179E+02  0.72944936583E+02  0.00000000000E+00 0. -1.
         21    1    1    2  504  503  0.41781543017E+02 -0.16776861728E+02  0.28764975379E+03  0.29115209304E+03  0.00000000000E+00 0. -1.
<mgrwt>
<rscale>  2 0.45023998E+02</rscale>
<asrwt>0</asrwt>
<pdfrwt beam="1">  1       21 0.54549101E-01 0.45023998E+02</pdfrwt>
<pdfrwt beam="2">  1       21 0.14658164E-02 0.45023998E+02</pdfrwt>
<totfact> 0.59060103E+06</totfact>
</mgrwt>
</event>
<event>
 4    1  0.4353697E+006  0.4437608E+02  0.7546771E-02  0.1478275E+00
         21   -1    0    0  503  501  0.00000000000E+00  0.00000000000E+00  0.10644229694E+03  0.10644229694E+03  0.00000000000E+00 0. -1.
         21   -1    0    0  504  502 -0.00000000000E+00 -0.00000000000E+00 -0.26901240809E+02  0.26901240809E+02  0.00000000000E+00 0.  1.
         21    1    1    2  503  502  0.38272548935E+02  0.22459939527E+02  0.25129748979E+01  0.44447181333E+02  0.00000000000E+00 0.  1.
         21    1    1    2  504  501 -0.38272548935E+02 -0.22459939527E+02  0.77028081229E+02  0.88896356413E+02  0.00000000000E+00 0. -1.
<mgrwt>
<rscale>  2 0.44376085E+02</rscale>
<asrwt>0</asrwt>
<pdfrwt beam="1">  1       21 0.16375738E-01 0.44376085E+02</pdfrwt>
<pdfrwt beam="2">  1       21 0.41386525E-02 0.44376085E+02</pdfrwt>
<totfact> 0.10883215E+07</totfact>
</mgrwt>
</event>
<event>
 4    1  0.4353697E+006  0.3860914E+02  0.7546771E-02  0.1518703E+00
         21   -1    0    0  504  501  0.00000000000E+00  0.00000000000E+00  0.30806424500E+01  0.30806424500E+01  0.00000000000E+00 0. -1.
         21   -1    0    0  503  502 -0.00000000000E+00 -0.00000000000E+00 -0.97361954710E+03  0.97361954710E+03  0.00000000000E+00 0.  1.
         21    1    1    2  503  501  0.22589713348E+02 -0.31310873281E+02 -0.13891677419E+03  0.14418230157E+03  0.00000000000E+00 0. -1.
         21    1    1    2  504  502 -0.22589713348E+02  0.31310873281E+02 -0.83162213046E+03  0.83251788798E+03  0.00000000000E+00 0.  1.
<mgrwt>
<rscale>  2 0.38609143E+02</rscale>
<asrwt>0</asrwt>
<pdfrwt beam="1">  1       21 0.47394478E-03 0.38609143E+02</pdfrwt>
<pdfrwt beam="2">  1       21 0.14978769E+00 0.38609143E+02</pdfrwt>
<totfact> 0.34890376E+06</totfact>
</mgrwt>
</event>
<event>
 4    1  0.4353697E+006  0.2343535E+02  0.7546771E-02  0.1684549E+00
         21   -1    0    0  502  501  0.00000000000E+00  0.00000000000E+00  0.42155500710E+03  0.42155500710E+03  0.00000000000E+00 0. -1.
         21   -1    0    0  503  502 -0.00000000000E+00 -0.00000000000E+00 -0.41183745918E+02  0.41183745918E+02  0.00000000000E+00 0. -1.
         21    1    1    2  503  504  0.10301993635E+02 -0.21049568853E+02 -0.37494694840E+02  0.44216145953E+02  0.00000000000E+00 0. -1.
         21    1    1    2  504  501 -0.10301993635E+02  0.21049568853E+02  0.41786595603E+03  0.41852260707E+03  0.00000000000E+00 0. -1.
<mgrwt>
<rscale>  2 0.23435346E+02</rscale>
<asrwt>0</asrwt>
<pdfrwt beam="1">  1       21 0.64854614E-01 0.23435346E+02</pdfrwt>
<pdfrwt beam="2">  1       21 0.63359612E-02 0.23435346E+02</pdfrwt>
<totfact> 0.39178736E+05</totfact>
</mgrwt>
</event>
<event>
 4    1  0.4353697E+006  0.2845158E+02  0.7546771E-02  0.1615863E+00
         21   -1    0    0  503  501  0.00000000000E+00  0.00000000000E+00  0.87621167077E+02  0.87621167077E+02  0.00000000000E+00 0. -1.
         21   -1    0    0  504  502 -0.00000000000E+00 -0.00000000000E+00 -0.25927066633E+02  0.25927066633E+02  0.00000000000E+00 0.  1.
         21    1    1    2  503  502  0.88655681603E+01  0.27035055864E+02 -0.14702339403E+02  0.32025791611E+02  0.00000000000E+00 0.  1.
         21    1    1    2  504  501 -0.88655681603E+01 -0.27035055864E+02  0.76396439847E+02  0.81522442098E+02  0.00000000000E+00 0. -1.
<mgrwt>
<rscale>  2 0.28451582E+02</rscale>
<asrwt>0</asrwt>
<pdfrwt beam="1">  1       21 0.13480179E-01 0.28451582E+02</pdfrwt>
<pdfrwt beam="2">  1       21 0.39887795E-02 0.28451582E+02</pdfrwt>
<totfact> 0.15091406E+07</totfact>
</mgrwt>
</event>
<event>
 4    1  0.4353697E+006  0.2012810E+02  0.7546771E-02  0.1742793E+00
         21   -1    0    0  504  501  0.00000000000E+00  0.00000000000E+00  0.24205009977E+01  0.24205009977E+01  0.00000000000E+00 0. -1.
         21   -1    0    0  503  502 -0.00000000000E+00 -0.00000000000E+00 -0.95583941586E+03  0.95583941586E+03  0.00000000000E+00 0.  1.
         21    1    1    2  503  501 -0.20017908805E+02 -0.21032797105E+01 -0.91187136525E+03  0.91209348601E+03  0.00000000000E+00 0.  1.
         21    1    1    2  504  502  0.20017908805E+02  0.21032797105E+01 -0.41547549612E+02  0.46166430848E+02  0.00000000000E+00 0. -1.
<mgrwt>
<rscale>  2 0.20128101E+02</rscale>
<asrwt>0</asrwt>
<pdfrwt beam="1">  1       21 0.37238461E-03 0.20128101E+02</pdfrwt>
<pdfrwt beam="2">  1       21 0.14705228E+00 0.20128101E+02</pdfrwt>
<totfact> 0.48788820E+06</totfact>
</mgrwt>
</event>
<event>
 4    1  0.4353697E+006  0.2327410E+02  0.7546771E-02  0.1687105E+00
         21   -1    0    0  504  501  0.00000000000E+00  0.00000000000E+00  0.77403853276E+01  0.77403853276E+01  0.00000000000E+00 0. -1.
         21   -1    0    0  503  502 -0.00000000000E+00 -0.00000000000E+00 -0.70619875182E+02  0.70619875182E+02  0.00000000000E+00 0. -1.
         21    1    1    2  503  501  0.92214425225E+01 -0.21369344683E+02 -0.27714668496E+02  0.36190976005E+02  0.00000000000E+00 0. -1.
         21    1    1    2  504  502 -0.92214425225E+01  0.21369344683E+02 -0.35164821358E+02  0.42169284504E+02  0.00000000000E+00 0. -1.
<mgrwt>
<rscale>  2 0.23274104E+02</rscale>
<asrwt>0</asrwt>
<pdfrwt beam="1">  1       21 0.11908285E-02 0.23274104E+02</pdfrwt>
<pdfrwt beam="2">  1       21 0.10864596E-01 0.23274104E+02</pdfrwt>
<totfact> 0.13420460E+08</totfact>
</mgrwt>
</event>
<event>
 4    1  0.4353697E+006  0.2387117E+02  0.7546771E-02  0.1677766E+00
         21   -1    0    0  503  501  0.00000000000E+00  0.00000000000E+00  0.70963902196E+01  0.70963902196E+01  0.00000000000E+00 0.  1.
         21   -1    0    0  501  502 -0.00000000000E+00 -0.00000000000E+00 -0.98850774325E+02  0.98850774325E+02  0.00000000000E+00 0.  1.
         21    1    1    2  503  504 -0.16106120273E+02  0.17618899966E+02 -0.22928258279E+02  0.33098908954E+02  0.00000000000E+00 0.  1.
         21    1    1    2  504  502  0.16106120273E+02 -0.17618899966E+02 -0.68826125827E+02  0.72848255591E+02  0.00000000000E+00 0.  1.
<mgrwt>
<rscale>  2 0.23871170E+02</rscale>
<asrwt>0</asrwt>
<pdfrwt beam="1">  1       21 0.10917523E-02 0.23871170E+02</pdfrwt>
<pdfrwt beam="2">  1       21 0.15207811E-01 0.23871170E+02</pdfrwt>
<totfact> 0.87444376E+07</totfact>
</mgrwt>
</event>
<event>
 4    1  0.4353697E+006  0.2033926E+02  0.7546771E-02  0.1738664E+00
         21   -1    0    0  503  501  0.00000000000E+00  0.00000000000E+00  0.22145719089E+03  0.22145719089E+03  0.00000000000E+00 0. -1.
         21   -1    0    0  501  502 -0.00000000000E+00 -0.00000000000E+00 -0.21709158262E+01  0.21709158262E+01  0.00000000000E+00 0. -1.
         21    1    1    2  503  504 -0.18362908397E+02  0.87458044740E+01  0.15140930779E+03  0.15276931625E+03  0.00000000000E+00 0. -1.
         21    1    1    2  504  502  0.18362908397E+02 -0.87458044740E+01  0.67876967274E+02  0.70858790471E+02  0.00000000000E+00 0. -1.
<mgrwt>
<rscale>  2 0.20339260E+02</rscale>
<asrwt>0</asrwt>
<pdfrwt beam="1">  1       21 0.34070319E-01 0.20339260E+02</pdfrwt>
<pdfrwt beam="2">  1       21 0.33398722E-03 0.20339260E+02</pdfrwt>
<totfact> 0.11618262E+08</totfact>
</mgrwt>
</event>
<event>
 4    1  0.4353697E+006  0.2710933E+02  0.7546771E-02  0.1632431E+00
         21   -1    0    0  504  501  0.00000000000E+00  0.00000000000E+00  0.24858746038E+01  0.24858746038E+01  0.00000000000E+00 0. -1.
         21   -1    0    0  503  502 -0.00000000000E+00 -0.00000000000E+00 -0.33030321384E+03  0.33030321384E+03  0.00000000000E+00 0. -1.
         21    1    1    2  503  501  0.91865703303E+01 -0.25505345467E+02 -0.21781476499E+03  0.21949530193E+03  0.00000000000E+00 0. -1.
         21    1    1    2  504  502 -0.91865703303E+01  0.25505345467E+02 -0.11000257425E+03  0.11329378652E+03  0.00000000000E+00 0. -1.
<mgrwt>
<rscale>  2 0.27109329E+02</rscale>
<asrwt>0</asrwt>
<pdfrwt beam="1">  1       21 0.38244228E-03 0.27109329E+02</pdfrwt>
<pdfrwt beam="2">  1       21 0.50815875E-01 0.27109329E+02</pdfrwt>
<totfact> 0.47935415E+07</totfact>
</mgrwt>
</event>
<event>
 4    1  0.4353697E+006  0.3419061E+02  0.7546771E-02  0.1555908E+00
         21   -1    0    0  502  501  0.00000000000E+00  0.00000000000E+00  0.10830430617E+02  0.10830430617E+02  0.00000000000E+00 0.  1.
         21   -1    0    0  504  502 -0.00000000000E+00 -0.00000000000E+00 -0.48433230319E+03  0.48433230319E+03  0.00000000000E+00 0. -1.
         21    1    1    2  503  501  0.15799771762E+02  0.30321037598E+02 -0.18493695731E+02  0.38871774986E+02  0.00000000000E+00 0.  1.
         21    1    1    2  504  503 -0.15799771762E+02 -0.30321037598E+02 -0.45500817684E+03  0.45629095882E+03  0.00000000000E+00 0. -1.
<mgrwt>
<rscale>  2 0.34190614E+02</rscale>
<asrwt>0</asrwt>
<pdfrwt beam="1">  1       21 0.16662201E-02 0.34190614E+02</pdfrwt>
<pdfrwt beam="2">  1       21 0.74512660E-01 0.34190614E+02</pdfrwt>
<totfact> 0.24790928E+06</totfact>
</mgrwt>
</event>
<event>
 4    1  0.4353697E+006  0.2020880E+02  0.7546771E-02  0.1741207E+00
         21   -1    0    0  503  501  0.00000000000E+00  0.00000000000E+00  0.51352393835E+03  0.51352393835E+03  0.00000000000E+00 0. -1.
         21   -1    0    0  504  502 -0.00000000000E+00 -0.00000000000E+00 -0.14564508788E+01  0.14564508788E+01  0.00000000000E+00 0. -1.
         21    1    1    2  503  502 -0.14163183806E+02  0.14415259840E+02  0.82545711295E+02  0.84983468657E+02  0.00000000000E+00 0. -1.
         21    1    1    2  504  501  0.14163183806E+02 -0.14415259840E+02  0.42952177618E+03  0.42999692057E+03  0.00000000000E+00 0. -1.
<mgrwt>
<rscale>  2 0.20208797E+02</rscale>
<asrwt>0</asrwt>
<pdfrwt beam="1">  1       21 0.79003539E-01 0.20208797E+02</pdfrwt>
<pdfrwt beam="2">  1       21 0.22406978E-03 0.20208797E+02</pdfrwt>
<totfact> 0.40140889E+07</totfact>
</mgrwt>
</event>
<event>
 4    1  0.4353697E+006  0.2133427E+02  0.7546771E-02  0.1720026E+00
         21   -1    0    0  504  501  0.00000000000E+00  0.00000000000E+00  0.60594525889E+01  0.60594525889E+01  0.00000000000E+00 0. -1.
         21   -1    0    0  501  502 -0.00000000000E+00 -0.00000000000E+00 -0.77998310375E+02  0.77998310375E+02  0.00000000000E+00 0. -1.
         21    1    1    2  503  502  0.17828133578E+02  0.11717887235E+02 -0.27887639766E+02  0.35112272496E+02  0.00000000000E+00 0. -1.
         21    1    1    2  504  503 -0.17828133578E+02 -0.11717887235E+02 -0.44051218020E+02  0.48945490468E+02  0.00000000000E+00 0. -1.
<mgrwt>
<rscale>  2 0.21334274E+02</rscale>
<asrwt>0</asrwt>
<pdfrwt beam="1">  1       21 0.93222351E-03 0.21334274E+02</pdfrwt>
<pdfrwt beam="2">  1       21 0.11999740E-01 0.21334274E+02</pdfrwt>
<totfact> 0.16006186E+08</totfact>
</mgrwt>
</event>
<event>
 4    1  0.4353697E+006  0.2323901E+02  0.7546771E-02  0.1687665E+00
         21   -1    0    0  502  501  0.00000000000E+00  0.00000000000E+00  0.48983996088E+02  0.48983996088E+02  0.00000000000E+00 0.  1.
         21   -1    0    0  503  502 -0.00000000000E+00 -0.00000000000E+00 -0.45256849438E+03  0.45256849438E+03  0.00000000000E+00 0. -1.
         21    1    1    2  503  504 -0.13575552086E+02  0.18861498232E+02 -0.44949506881E+03  0.45009539946E+03  0.00000000000E+00 0. -1.
         21    1    1    2  504  501  0.13575552086E+02 -0.18861498232E+02  0.45910570517E+02  0.51457091010E+02  0.00000000000E+00 0.  1.
<mgrwt>
<rscale>  2 0.23239013E+02</rscale>
<asrwt>0</asrwt>
<pdfrwt beam="1">  1       21 0.75359991E-02 0.23239013E+02</pdfrwt>
<pdfrwt beam="2">  1       21 0.69625925E-01 0.23239013E+02</pdfrwt>
<totfact> 0.25590327E+05</totfact>
</mgrwt>
</event>
<event>
 4    1  0.4353697E+006  0.2125719E+02  0.7546771E-02  0.1721424E+00
         21   -1    0    0  503  501  0.00000000000E+00  0.00000000000E+00  0.49171818435E+02  0.49171818435E+02  0.00000000000E+00 0.  1.
         21   -1    0    0  504  502 -0.00000000000E+00 -0.00000000000E+00 -0.11549375686E+02  0.11549375686E+02  0.00000000000E+00 0.  1.
         21    1    1    2  503  502 -0.16153877006E+02  0.13817400619E+02  0.32534831190E+02  0.38863653235E+02  0.00000000000E+00 0.  1.
         21    1    1    2  504  501  0.16153877006E+02 -0.13817400619E+02  0.50876115596E+01  0.21857540886E+02  0.00000000000E+00 0.  1.
<mgrwt>
<rscale>  2 0.21257194E+02</rscale>
<asrwt>0</asrwt>
<pdfrwt beam="1">  1       21 0.75648950E-02 0.21257194E+02</pdfrwt>
<pdfrwt beam="2">  1       21 0.17768271E-02 0.21257194E+02</pdfrwt>
<totfact> 0.12899086E+08</totfact>
</mgrwt>
</event>
<event>
 4    1  0.4353697E+006  0.2604694E+02  0.7546771E-02  0.1646404E+00
         21   -1    0    0  503  501  0.00000000000E+00  0.00000000000E+00  0.25165200456E+03  0.25165200456E+03  0.00000000000E+00 0.  1.
         21   -1    0    0  501  502 -0.00000000000E+00 -0.00000000000E+00 -0.40716817874E+02  0.40716817874E+02  0.00000000000E+00 0. -1.
         21    1    1    2  503  504 -0.17910677956E+02 -0.18911648724E+02  0.24672951972E+03  0.24810058191E+03  0.00000000000E+00 0.  1.
         21    1    1    2  504  502  0.17910677956E+02  0.18911648724E+02 -0.35794333031E+02  0.44268240528E+02  0.00000000000E+00 0. -1.
<mgrwt>
<rscale>  2 0.26046935E+02</rscale>
<asrwt>0</asrwt>
<pdfrwt beam="1">  1       21 0.38715692E-01 0.26046935E+02</pdfrwt>
<pdfrwt beam="2">  1       21 0.62641260E-02 0.26046935E+02</pdfrwt>
<totfact> 0.11006387E+06</totfact>
</mgrwt>
</event>
<event>
 4    1  0.4353697E+006  0.2581013E+02  0.7546771E-02  0.1649631E+00
         21   -1    0    0  503  501  0.00000000000E+00  0.00000000000E+00  0.63510472633E+02  0.63510472633E+02  0.00000000000E+00 0. -1.
         21   -1    0    0  504  502 -0.00000000000E+00 -0.00000000000E+00 -0.17114148869E+02  0.17114148869E+02  0.00000000000E+00 0. -1.
         21    1    1    2  503  502  0.25782103624E+02 -0.12025592944E+01  0.48279863673E+02  0.54745851463E+02  0.00000000000E+00 0. -1.
         21    1    1    2  504  501 -0.25782103624E+02  0.12025592944E+01 -0.18835399091E+01  0.25878770039E+02  0.00000000000E+00 0. -1.
<mgrwt>
<rscale>  2 0.25810134E+02</rscale>
<asrwt>0</asrwt>
<pdfrwt beam="1">  1       21 0.97708418E-02 0.25810134E+02</pdfrwt>
<pdfrwt beam="2">  1       21 0.26329460E-02 0.25810134E+02</pdfrwt>
<totfact> 0.48780557E+07</totfact>
</mgrwt>
</event>
<event>
 4    1  0.4353697E+006  0.2190594E+02  0.7546771E-02  0.1709884E+00
         21   -1    0    0  504  501  0.00000000000E+00  0.00000000000E+00  0.35813919209E+03  0.35813919209E+03  0.00000000000E+00 0.  1.
         21   -1    0    0  503  502 -0.00000000000E+00 -0.00000000000E+00 -0.22682932696E+01  0.22682932696E+01  0.00000000000E+00 0.  1.
         21    1    1    2  503  501  0.20019059190E+00 -0.21905021148E+02  0.29322252891E+03  0.29403965972E+03  0.00000000000E+00 0.  1.
         21    1    1    2  504  502 -0.20019059190E+00  0.21905021148E+02  0.62648369915E+02  0.66367825645E+02  0.00000000000E+00 0.  1.
<mgrwt>
<rscale>  2 0.21905936E+02</rscale>
<asrwt>0</asrwt>
<pdfrwt beam="1">  1       21 0.55098292E-01 0.21905936E+02</pdfrwt>
<pdfrwt beam="2">  1       21 0.34896848E-03 0.21905936E+02</pdfrwt>
<totfact> 0.44595886E+07</totfact>
</mgrwt>
</event>
<event>
 4    1  0.4353697E+006  0.2126387E+02  0.7546771E-02  0.1721303E+00
         21   -1    0    0  504  501  0.00000000000E+00  0.00000000000E+00  0.60194757098E+02  0.60194757098E+02  0.00000000000E+00 0.  1.
         21   -1    0    0  503  502 -0.00000000000E+00 -0.00000000000E+00 -0.16538874722E+02  0.16538874722E+02  0.00000000000E+00 0.  1.
         21    1    1    2  503  501 -0.65075451025E+01 -0.20243620694E+02  0.50173417078E+02  0.54493339991E+02  0.00000000000E+00 0.  1.
         21    1    1    2  504  502  0.65075451025E+01  0.20243620694E+02 -0.65175347014E+01  0.22240291829E+02  0.00000000000E+00 0.  1.
<mgrwt>
<rscale>  2 0.21263874E+02</rscale>
<asrwt>0</asrwt>
<pdfrwt beam="1">  1       21 0.92607318E-02 0.21263874E+02</pdfrwt>
<pdfrwt beam="2">  1       21 0.25444423E-02 0.21263874E+02</pdfrwt>
<totfact> 0.53489423E+07</totfact>
</mgrwt>
</event>
<event>
 4    1  0.4353697E+006  0.3203001E+02  0.7546771E-02  0.1576676E+00
         21   -1    0    0  502  501  0.00000000000E+00  0.00000000000E+00  0.26407086364E+03  0.26407086364E+03  0.00000000000E+00 0.  1.
         21   -1    0    0  503  502 -0.00000000000E+00 -0.00000000000E+00 -0.38882150588E+01  0.38882150588E+01  0.00000000000E+00 0. -1.
         21    1    1    2  503  504 -0.21099848369E+02 -0.24098096480E+02  0.12625357982E+03  0.13025316991E+03  0.00000000000E+00 0. -1.
         21    1    1    2  504  501  0.21099848369E+02  0.24098096480E+02  0.13392906876E+03  0.13770590879E+03  0.00000000000E+00 0.  1.
<mgrwt>
<rscale>  2 0.32030015E+02</rscale>
<asrwt>0</asrwt>
<pdfrwt beam="1">  1       21 0.40626273E-01 0.32030015E+02</pdfrwt>
<pdfrwt beam="2">  1       21 0.59818714E-03 0.32030015E+02</pdfrwt>
<totfact> 0.39355251E+07</totfact>
</mgrwt>
</event>
<event>
 4    1  0.4353697E+006  0.2156445E+02  0.7546771E-02  0.1715895E+00
         21   -1    0    0  504  501  0.00000000000E+00  0.00000000000E+00  0.11532332053E+03  0.11532332053E+03  0.00000000000E+00 0.  1.
         21   -1    0    0  501  502 -0.00000000000E+00 -0.00000000000E+00 -0.41738938647E+01  0.41738938647E+01  0.00000000000E+00 0.  1.
         21    1    1    2  503  502  0.20852852160E+01  0.21463391058E+02  0.44572460804E+02  0.49514945544E+02  0.00000000000E+00 0.  1.
         21    1    1    2  504  503 -0.20852852160E+01 -0.21463391058E+02  0.66576965862E+02  0.69982268851E+02  0.00000000000E+00 0.  1.
<mgrwt>
<rscale>  2 0.21564452E+02</rscale>
<asrwt>0</asrwt>
<pdfrwt beam="1">  1       21 0.17742047E-01 0.21564452E+02</pdfrwt>
<pdfrwt beam="2">  1       21 0.64213760E-03 0.21564452E+02</pdfrwt>
<totfact> 0.14414948E+08</totfact>
</mgrwt>
</event>
<event>
 4    1  0.4353697E+006  0.3119764E+02  0.7546771E-02  0.1585216E+00
         21   -1    0    0  503  501  0.00000000000E+00  0.00000000000E+00  0.18049662032E+03  0.18049662032E+03  0.00000000000E+00 0. -1.
         21   -1    0    0  504  502 -0.00000000000E+00 -0.00000000000E+00 -0.10954411688E+02  0.10954411688E+02  0.00000000000E+00 0. -1.
         21    1    1    2  503  502  0.31149587285E+02  0.17308261167E+01  0.15298186693E+03  0.15613053563E+03  0.00000000000E+00 0. -1.
         21    1    1    2  504  501 -0.31149587285E+02 -0.17308261167E+01  0.16560341704E+02  0.35320496378E+02  0.00000000000E+00 0. -1.
<mgrwt>
<rscale>  2 0.31197637E+02</rscale>
<asrwt>0</asrwt>
<pdfrwt beam="1">  1       21 0.27768709E-01 0.31197637E+02</pdfrwt>
<pdfrwt beam="2">  1       21 0.16852942E-02 0.31197637E+02</pdfrwt>
<totfact> 0.16537762E+07</totfact>
</mgrwt>
</event>
<event>
 4    1  0.4353697E+006  0.2633571E+02  0.7546771E-02  0.1642526E+00
         21   -1    0    0  502  501  0.00000000000E+00  0.00000000000E+00  0.50847847991E+01  0.50847847991E+01  0.00000000000E+00 0. -1.
         21   -1    0    0  503  502 -0.00000000000E+00 -0.00000000000E+00 -0.19373528287E+03  0.19373528287E+03  0.00000000000E+00 0. -1.
         21    1    1    2  503  504 -0.21861602293E+02  0.14684689964E+02 -0.14840479311E+03  0.15072343014E+03  0.00000000000E+00 0. -1.
         21    1    1    2  504  501  0.21861602293E+02 -0.14684689964E+02 -0.40245704963E+02  0.48096637534E+02  0.00000000000E+00 0. -1.
<mgrwt>
<rscale>  2 0.26335713E+02</rscale>
<asrwt>0</asrwt>
<pdfrwt beam="1">  1       21 0.78227461E-03 0.26335713E+02</pdfrwt>
<pdfrwt beam="2">  1       21 0.29805427E-01 0.26335713E+02</pdfrwt>
<totfact> 0.45122008E+07</totfact>
</mgrwt>
</event>
<event>
 4    1  0.4353697E+006  0.2546082E+02  0.7546771E-02  0.1654470E+00
         21   -1    0    0  502  501  0.00000000000E+00  0.00000000000E+00  0.56294320931E+01  0.56294320931E+01  0.00000000000E+00 0.  1.
         21   -1    0    0  503  502 -0.00000000000E+00 -0.00000000000E+00 -0.12173389711E+03  0.12173389711E+03  0.00000000000E+00 0. -1.
         21    1    1    2  503  504  0.23332033981E+02  0.10191630967E+02 -0.72857260618E+02  0.77177934516E+02  0.00000000000E+00 0.  1.
         21    1    1    2  504  501 -0.23332033981E+02 -0.10191630967E+02 -0.43247204395E+02  0.50185394683E+02  0.00000000000E+00 0. -1.
<mgrwt>
<rscale>  2 0.25460816E+02</rscale>
<asrwt>0</asrwt>
<pdfrwt beam="1">  1       21 0.86606655E-03 0.25460816E+02</pdfrwt>
<pdfrwt beam="2">  1       21 0.18728290E-01 0.25460816E+02</pdfrwt>
<totfact> 0.87985255E+07</totfact>
</mgrwt>
</event>
<event>
 4    1  0.4353697E+006  0.2653018E+02  0.7546771E-02  0.1639949E+00
         21   -1    0    0  504  501  0.00000000000E+00  0.00000000000E+00  0.76546071102E+02  0.76546071102E+02  0.00000000000E+00 0.  1.
         21   -1    0    0  503  502 -0.00000000000E+00 -0.00000000000E+00 -0.42830289626E+02  0.42830289626E+02  0.00000000000E+00 0.  1.
         21    1    1    2  503  501  0.22747941225E+02  0.13652170234E+02 -0.36036500334E+02  0.44749077514E+02  0.00000000000E+00 0.  1.
         21    1    1    2  504  502 -0.22747941225E+02 -0.13652170234E+02  0.69752281810E+02  0.74627283213E+02  0.00000000000E+00 0.  1.
<mgrwt>
<rscale>  2 0.26530182E+02</rscale>
<asrwt>0</asrwt>
<pdfrwt beam="1">  1       21 0.11776319E-01 0.26530182E+02</pdfrwt>
<pdfrwt beam="2">  1       21 0.65892753E-02 0.26530182E+02</pdfrwt>
<totfact> 0.83700259E+06</totfact>
</mgrwt>
</event>
<event>
 4    1  0.4353697E+006  0.2449090E+02  0.7546771E-02  0.1668424E+00
         21   -1    0    0  504  501  0.00000000000E+00  0.00000000000E+00  0.83647959444E+03  0.83647959444E+03  0.00000000000E+00 0.  1.
         21   -1    0    0  503  502 -0.00000000000E+00 -0.00000000000E+00 -0.48350331524E+01  0.48350331524E+01  0.00000000000E+00 0.  1.
         21    1    1    2  503  501  0.36486607992E+00  0.24488183413E+02  0.80403573726E+03  0.80440864680E+03  0.00000000000E+00 0.  1.
         21    1    1    2  504  502 -0.36486607992E+00 -0.24488183413E+02  0.27608824027E+02  0.36905980792E+02  0.00000000000E+00 0.  1.
<mgrwt>
<rscale>  2 0.24490901E+02</rscale>
<asrwt>0</asrwt>
<pdfrwt beam="1">  1       21 0.12868905E+00 0.24490901E+02</pdfrwt>
<pdfrwt beam="2">  1       21 0.74385192E-03 0.24490901E+02</pdfrwt>
<totfact> 0.24535792E+06</totfact>
</mgrwt>
</event>
<event>
 4    1  0.4353697E+006  0.2463213E+02  0.7546771E-02  0.1666343E+00
         21   -1    0    0  504  501  0.00000000000E+00  0.00000000000E+00  0.32280384013E+02  0.32280384013E+02  0.00000000000E+00 0.  1.
         21   -1    0    0  503  502 -0.00000000000E+00 -0.00000000000E+00 -0.10140574428E+03  0.10140574428E+03  0.00000000000E+00 0.  1.
         21    1    1    2  503  501  0.24255988395E+02  0.42882121588E+01  0.25768349883E+02  0.35647574843E+02  0.00000000000E+00 0.  1.
         21    1    1    2  504  502 -0.24255988395E+02 -0.42882121588E+01 -0.94893710155E+02  0.98038553454E+02  0.00000000000E+00 0.  1.
<mgrwt>
<rscale>  2 0.24632128E+02</rscale>
<asrwt>0</asrwt>
<pdfrwt beam="1">  1       21 0.49662130E-02 0.24632128E+02</pdfrwt>
<pdfrwt beam="2">  1       21 0.15600884E-01 0.24632128E+02</pdfrwt>
<totfact> 0.80849743E+06</totfact>
</mgrwt>
</event>
<event>
 4    1  0.4353697E+006  0.3768466E+02  0.7546771E-02  0.1525976E+00
         21   -1    0    0  503  501  0.00000000000E+00  0.00000000000E+00  0.54161434934E+02  0.54161434934E+02  0.00000000000E+00 0.  1.
         21   -1    0    0  504  502 -0.00000000000E+00 -0.00000000000E+00 -0.66806606971E+02  0.66806606971E+02  0.00000000000E+00 0.  1.
         21    1    1    2  503  502 -0.35311458610E+02 -0.13161856177E+02  0.40820745676E+02  0.55555979378E+02  0.00000000000E+00 0.  1.
         21    1    1    2  504  501  0.35311458610E+02  0.13161856177E+02 -0.53465917712E+02  0.65412062527E+02  0.00000000000E+00 0.  1.
<mgrwt>
<rscale>  2 0.37684660E+02</rscale>
<asrwt>0</asrwt>
<pdfrwt beam="1">  1       21 0.83325285E-02 0.37684660E+02</pdfrwt>
<pdfrwt beam="2">  1       21 0.10277939E-01 0.37684660E+02</pdfrwt>
<totfact> 0.75427895E+06</totfact>
</mgrwt>
</event>
<event>
 4    1  0.4353697E+006  0.2031221E+02  0.7546771E-02  0.1739190E+00
         21   -1    0    0  502  501  0.00000000000E+00  0.00000000000E+00  0.91962830572E+02  0.91962830572E+02  0.00000000000E+00 0. -1.
         21   -1    0    0  503  502 -0.00000000000E+00 -0.00000000000E+00 -0.50809310131E+02  0.50809310131E+02  0.00000000000E+00 0. -1.
         21    1    1    2  503  504 -0.25036822482E+01 -0.20157320529E+02 -0.47584803094E+02  0.51738761883E+02  0.00000000000E+00 0. -1.
         21    1    1    2  504  501  0.25036822482E+01  0.20157320529E+02  0.88738323535E+02  0.91033378820E+02  0.00000000000E+00 0. -1.
<mgrwt>
<rscale>  2 0.20312213E+02</rscale>
<asrwt>0</asrwt>
<pdfrwt beam="1">  1       21 0.14148128E-01 0.20312213E+02</pdfrwt>
<pdfrwt beam="2">  1       21 0.78168170E-02 0.20312213E+02</pdfrwt>
<totfact> 0.44515581E+06</totfact>
</mgrwt>
</event>
<event>
 4    1  0.4353697E+006  0.4331282E+02  0.7546771E-02  0.1485158E+00
         21   -1    0    0  504  501  0.00000000000E+00  0.00000000000E+00  0.27265843587E+03  0.27265843587E+03  0.00000000000E+00 0. -1.
         21   -1    0    0  503  502 -0.00000000000E+00 -0.00000000000E+00 -0.96821638651E+01  0.96821638651E+01  0.00000000000E+00 0. -1.
         21    1    1    2  503  501 -0.40105778706E+02  0.16356253597E+02  0.55547805032E+02  0.70438335877E+02  0.00000000000E+00 0. -1.
         21    1    1    2  504  502  0.40105778706E+02 -0.16356253597E+02  0.20742846698E+03  0.21190226386E+03  0.00000000000E+00 0. -1.
<mgrwt>
<rscale>  2 0.43312822E+02</rscale>
<asrwt>0</asrwt>
<pdfrwt beam="1">  1       21 0.41947446E-01 0.43312822E+02</pdfrwt>
<pdfrwt beam="2">  1       21 0.14895639E-02 0.43312822E+02</pdfrwt>
<totfact> 0.96560164E+06</totfact>
</mgrwt>
</event>
<event>
 4    1  0.4353697E+006  0.2595729E+02  0.7546771E-02  0.1647621E+00
         21   -1    0    0  503  501  0.00000000000E+00  0.00000000000E+00  0.30214512172E+02  0.30214512172E+02  0.00000000000E+00 0.  1.
         21   -1    0    0  504  502 -0.00000000000E+00 -0.00000000000E+00 -0.70648950879E+02  0.70648950879E+02  0.00000000000E+00 0. -1.
         21    1    1    2  503  502  0.16733809350E+01 -0.25903292657E+02  0.21502845185E+02  0.33706870595E+02  0.00000000000E+00 0.  1.
         21    1    1    2  504  501 -0.16733809350E+01  0.25903292657E+02 -0.61937283892E+02  0.67156592455E+02  0.00000000000E+00 0. -1.
<mgrwt>
<rscale>  2 0.25957287E+02</rscale>
<asrwt>0</asrwt>
<pdfrwt beam="1">  1       21 0.46483865E-02 0.25957287E+02</pdfrwt>
<pdfrwt beam="2">  1       21 0.10869069E-01 0.25957287E+02</pdfrwt>
<totfact> 0.16714533E+07</totfact>
</mgrwt>
</event>
<event>
 4    1  0.4353697E+006  0.2094003E+02  0.7546771E-02  0.1727256E+00
         21   -1    0    0  503  501  0.00000000000E+00  0.00000000000E+00  0.75900965859E+01  0.75900965859E+01  0.00000000000E+00 0. -1.
         21   -1    0    0  504  502 -0.00000000000E+00 -0.00000000000E+00 -0.83258888019E+02  0.83258888019E+02  0.00000000000E+00 0. -1.
         21    1    1    2  503  502  0.18576080129E+02 -0.96651027129E+01 -0.12701384940E+02  0.24491021678E+02  0.00000000000E+00 0. -1.
         21    1    1    2  504  501 -0.18576080129E+02  0.96651027129E+01 -0.62967406492E+02  0.66357962927E+02  0.00000000000E+00 0. -1.
<mgrwt>
<rscale>  2 0.20940033E+02</rscale>
<asrwt>0</asrwt>
<pdfrwt beam="1">  1       21 0.11677072E-02 0.20940033E+02</pdfrwt>
<pdfrwt beam="2">  1       21 0.12809059E-01 0.20940033E+02</pdfrwt>
<totfact> 0.10182197E+08</totfact>
</mgrwt>
</event>
<event>
 4    1  0.4353697E+006  0.2372219E+02  0.7546771E-02  0.1680064E+00
         21   -1    0    0  503  501  0.00000000000E+00  0.00000000000E+00  0.20043011681E+02  0.20043011681E+02  0.00000000000E+00 0.  1.
         21   -1    0    0  504  502 -0.00000000000E+00 -0.00000000000E+00 -0.49991264877E+02  0.49991264877E+02  0.00000000000E+00 0.  1.
         21    1    1    2  503  502 -0.11306915725E+02  0.20854157219E+02 -0.38158732740E+02  0.44931404394E+02  0.00000000000E+00 0.  1.
         21    1    1    2  504  501  0.11306915725E+02 -0.20854157219E+02  0.82104795437E+01  0.25102872164E+02  0.00000000000E+00 0.  1.
<mgrwt>
<rscale>  2 0.23722188E+02</rscale>
<asrwt>0</asrwt>
<pdfrwt beam="1">  1       21 0.30835403E-02 0.23722188E+02</pdfrwt>
<pdfrwt beam="2">  1       21 0.76909638E-02 0.23722188E+02</pdfrwt>
<totfact> 0.55365808E+07</totfact>
</mgrwt>
</event>
<event>
 4    1  0.4353697E+006  0.2403470E+02  0.7546771E-02  0.1675267E+00
         21   -1    0    0  503  501  0.00000000000E+00  0.00000000000E+00  0.98253592417E+01  0.98253592417E+01  0.00000000000E+00 0.  1.
         21   -1    0    0  504  502 -0.00000000000E+00 -0.00000000000E+00 -0.59270555766E+02  0.59270555766E+02  0.00000000000E+00 0. -1.
         21    1    1    2  503  502  0.14884512124E+02 -0.18871097388E+02 -0.21623048546E+02  0.32329912561E+02  0.00000000000E+00 0. -1.
         21    1    1    2  504  501 -0.14884512124E+02  0.18871097388E+02 -0.27822147979E+02  0.36766002447E+02  0.00000000000E+00 0.  1.
<mgrwt>
<rscale>  2 0.24034704E+02</rscale>
<asrwt>0</asrwt>
<pdfrwt beam="1">  1       21 0.15115938E-02 0.24034704E+02</pdfrwt>
<pdfrwt beam="2">  1       21 0.91185469E-02 0.24034704E+02</pdfrwt>
<totfact> 0.12611308E+08</totfact>
</mgrwt>
</event>
<event>
 4    1  0.4353697E+006  0.2971165E+02  0.7546771E-02  0.1601298E+00
         21   -1    0    0  503  501  0.00000000000E+00  0.00000000000E+00  0.47025450367E+03  0.47025450367E+03  0.00000000000E+00 0.  1.
         21   -1    0    0  504  502 -0.00000000000E+00 -0.00000000000E+00 -0.92583262765E+01  0.92583262765E+01  0.00000000000E+00 0.  1.
         21    1    1    2  503  502 -0.15641660112E+02 -0.25261054525E+02  0.44457213640E+03  0.44556387518E+03  0.00000000000E+00 0.  1.
         21    1    1    2  504  501  0.15641660112E+02  0.25261054525E+02  0.16424040993E+02  0.33948954761E+02  0.00000000000E+00 0.  1.
<mgrwt>
<rscale>  2 0.29711654E+02</rscale>
<asrwt>0</asrwt>
<pdfrwt beam="1">  1       21 0.72346828E-01 0.29711654E+02</pdfrwt>
<pdfrwt beam="2">  1       21 0.14243583E-02 0.29711654E+02</pdfrwt>
<totfact> 0.33111589E+06</totfact>
</mgrwt>
</event>
<event>
 4    1  0.4353697E+006  0.3601419E+02  0.7546771E-02  0.1539774E+00
         21   -1    0    0  502  501  0.00000000000E+00  0.00000000000E+00  0.32503697062E+03  0.32503697062E+03  0.00000000000E+00 0. -1.
         21   -1    0    0  503  502 -0.00000000000E+00 -0.00000000000E+00 -0.89592222589E+01  0.89592222589E+01  0.00000000000E+00 0. -1.
         21    1    1    2  503  504 -0.10155525595E+02 -0.34552676272E+02  0.33672257138E+02  0.49303580382E+02  0.00000000000E+00 0. -1.
         21    1    1    2  504  501  0.10155525595E+02  0.34552676272E+02  0.28240549122E+03  0.28469261250E+03  0.00000000000E+00 0. -1.
<mgrwt>
<rscale>  2 0.36014194E+02</rscale>
<asrwt>0</asrwt>
<pdfrwt beam="1">  1       21 0.50005679E-01 0.36014194E+02</pdfrwt>
<pdfrwt beam="2">  1       21 0.13783421E-02 0.36014194E+02</pdfrwt>
<totfact> 0.75393645E+06</totfact>
</mgrwt>
</event>
<event>
 4    1  0.4353697E+006  0.2468572E+02  0.7546771E-02  0.1665557E+00
         21   -1    0    0  504  501  0.00000000000E+00  0.00000000000E+00  0.57330439206E+01  0.57330439206E+01  0.00000000000E+00 0. -1.
         21   -1    0    0  501  502 -0.00000000000E+00 -0.00000000000E+00 -0.16931664457E+03  0.16931664457E+03  0.00000000000E+00 0. -1.
         21    1    1    2  503  502  0.24606156302E+02 -0.19803602448E+01 -0.13519064791E+03  0.13742596565E+03  0.00000000000E+00 0. -1.
         21    1    1    2  504  503 -0.24606156302E+02  0.19803602448E+01 -0.28392952748E+02  0.37623722841E+02  0.00000000000E+00 0. -1.
<mgrwt>
<rscale>  2 0.24685720E+02</rscale>
<asrwt>0</asrwt>
<pdfrwt beam="1">  1       21 0.88200693E-03 0.24685720E+02</pdfrwt>
<pdfrwt beam="2">  1       21 0.26048709E-01 0.24685720E+02</pdfrwt>
<totfact> 0.47418414E+07</totfact>
</mgrwt>
</event>
<event>
 4    1  0.4353697E+006  0.2131220E+02  0.7546771E-02  0.1720426E+00
         21   -1    0    0  502  501  0.00000000000E+00  0.00000000000E+00  0.12671525357E+03  0.12671525357E+03  0.00000000000E+00 0. -1.
         21   -1    0    0  503  502 -0.00000000000E+00 -0.00000000000E+00 -0.15968788179E+02  0.15968788179E+02  0.00000000000E+00 0.  1.
         21    1    1    2  503  504 -0.20563670423E+02  0.55987074286E+01 -0.74535842288E+01  0.22577997786E+02  0.00000000000E+00 0.  1.
         21    1    1    2  504  501  0.20563670423E+02 -0.55987074286E+01  0.11820004962E+03  0.12010604396E+03  0.00000000000E+00 0. -1.
<mgrwt>
<rscale>  2 0.21312205E+02</rscale>
<asrwt>0</asrwt>
<pdfrwt beam="1">  1       21 0.19494654E-01 0.21312205E+02</pdfrwt>
<pdfrwt beam="2">  1       21 0.24567367E-02 0.21312205E+02</pdfrwt>
<totfact> 0.16124646E+07</totfact>
</mgrwt>
</event>
<event>
 4    1  0.4353697E+006  0.2973431E+02  0.7546771E-02  0.1601044E+00
         21   -1    0    0  504  501  0.00000000000E+00  0.00000000000E+00  0.47253872527E+00  0.47253872527E+00  0.00000000000E+00 0. -1.
         21   -1    0    0  503  502 -0.00000000000E+00 -0.00000000000E+00 -0.21683188751E+04  0.21683188751E+04  0.00000000000E+00 0. -1.
         21    1    1    2  503  501 -0.29280077630E+02  0.51774999120E+01 -0.68238875060E+03  0.68303626287E+03  0.00000000000E+00 0. -1.
         21    1    1    2  504  502  0.29280077630E+02 -0.51774999120E+01 -0.14854575857E+04  0.14857551509E+04  0.00000000000E+00 0. -1.
<mgrwt>
<rscale>  2 0.29734314E+02</rscale>
<asrwt>0</asrwt>
<pdfrwt beam="1">  1       21 0.72698526E-04 0.29734314E+02</pdfrwt>
<pdfrwt beam="2">  1       21 0.33358632E+00 0.29734314E+02</pdfrwt>
<totfact> 0.52073720E+06</totfact>
</mgrwt>
</event>
<event>
 4    1  0.4353697E+006  0.2036013E+02  0.7546771E-02  0.1738260E+00
         21   -1    0    0  504  501  0.00000000000E+00  0.00000000000E+00  0.51632072454E+02  0.51632072454E+02  0.00000000000E+00 0. -1.
         21   -1    0    0  503  502 -0.00000000000E+00 -0.00000000000E+00 -0.88105464523E+02  0.88105464523E+02  0.00000000000E+00 0. -1.
         21    1    1    2  503  501 -0.89823617274E+01 -0.18271621405E+02  0.48372640148E+02  0.52482828486E+02  0.00000000000E+00 0. -1.
         21    1    1    2  504  502  0.89823617274E+01  0.18271621405E+02 -0.84846032217E+02  0.87254708492E+02  0.00000000000E+00 0. -1.
<mgrwt>
<rscale>  2 0.20360132E+02</rscale>
<asrwt>0</asrwt>
<pdfrwt beam="1">  1       21 0.79433957E-02 0.20360132E+02</pdfrwt>
<pdfrwt beam="2">  1       21 0.13554687E-01 0.20360132E+02</pdfrwt>
<totfact> 0.46632892E+06</totfact>
</mgrwt>
</event>
<event>
 4    1  0.4353697E+006  0.2503103E+02  0.7546771E-02  0.1660557E+00
         21   -1    0    0  504  501  0.00000000000E+00  0.00000000000E+00  0.49393999653E+02  0.49393999653E+02  0.00000000000E+00 0. -1.
         21   -1    0    0  503  502 -0.00000000000E+00 -0.00000000000E+00 -0.35271327528E+02  0.35271327528E+02  0.00000000000E+00 0. -1.
         21    1    1    2  503  501  0.24924174395E+02  0.23103603472E+01 -0.26814465208E+02  0.36681981661E+02  0.00000000000E+00 0. -1.
         21    1    1    2  504  502 -0.24924174395E+02 -0.23103603472E+01  0.40937137334E+02  0.47983345520E+02  0.00000000000E+00 0. -1.
<mgrwt>
<rscale>  2 0.25031025E+02</rscale>
<asrwt>0</asrwt>
<pdfrwt beam="1">  1       21 0.75990768E-02 0.25031025E+02</pdfrwt>
<pdfrwt beam="2">  1       21 0.54263581E-02 0.25031025E+02</pdfrwt>
<totfact> 0.23395362E+07</totfact>
</mgrwt>
</event>
<event>
 4    1  0.4353697E+006  0.2691761E+02  0.7546771E-02  0.1634894E+00
         21   -1    0    0  503  501  0.00000000000E+00  0.00000000000E+00  0.21698121449E+02  0.21698121449E+02  0.00000000000E+00 0. -1.
         21   -1    0    0  501  502 -0.00000000000E+00 -0.00000000000E+00 -0.62277456316E+02  0.62277456316E+02  0.00000000000E+00 0. -1.
         21    1    1    2  503  504  0.12795186275E+02 -0.23682085512E+02  0.83054731329E+01  0.28169821618E+02  0.00000000000E+00 0. -1.
         21    1    1    2  504  502 -0.12795186275E+02  0.23682085512E+02 -0.48884807999E+02  0.55805756147E+02  0.00000000000E+00 0. -1.
<mgrwt>
<rscale>  2 0.26917614E+02</rscale>
<asrwt>0</asrwt>
<pdfrwt beam="1">  1       21 0.33381726E-02 0.26917614E+02</pdfrwt>
<pdfrwt beam="2">  1       21 0.95811469E-02 0.26917614E+02</pdfrwt>
<totfact> 0.35099666E+07</totfact>
</mgrwt>
</event>
<event>
 4    1  0.4353697E+006  0.2088427E+02  0.7546771E-02  0.1728294E+00
         21   -1    0    0  503  501  0.00000000000E+00  0.00000000000E+00  0.13463734797E+03  0.13463734797E+03  0.00000000000E+00 0. -1.
         21   -1    0    0  504  502 -0.00000000000E+00 -0.00000000000E+00 -0.20229702992E+02  0.20229702992E+02  0.00000000000E+00 0. -1.
         21    1    1    2  503  502  0.19989177723E+02 -0.60485995715E+01 -0.13759514398E+02  0.25009538566E+02  0.00000000000E+00 0. -1.
         21    1    1    2  504  501 -0.19989177723E+02  0.60485995715E+01  0.12816715937E+03  0.12985751239E+03  0.00000000000E+00 0. -1.
<mgrwt>
<rscale>  2 0.20884271E+02</rscale>
<asrwt>0</asrwt>
<pdfrwt beam="1">  1       21 0.20713438E-01 0.20884271E+02</pdfrwt>
<pdfrwt beam="2">  1       21 0.31122621E-02 0.20884271E+02</pdfrwt>
<totfact> 0.10022155E+07</totfact>
</mgrwt>
</event>
<event>
 4    1  0.4353697E+006  0.2119699E+02  0.7546771E-02  0.1722521E+00
         21   -1    0    0  504  501  0.00000000000E+00  0.00000000000E+00  0.74471112719E+01  0.74471112719E+01  0.00000000000E+00 0. -1.
         21   -1    0    0  503  502 -0.00000000000E+00 -0.00000000000E+00 -0.44218594591E+03  0.44218594591E+03  0.00000000000E+00 0. -1.
         21    1    1    2  503  501  0.12502819533E+02 -0.17117006290E+02 -0.84526019567E+01  0.22820141990E+02  0.00000000000E+00 0. -1.
         21    1    1    2  504  502 -0.12502819533E+02  0.17117006290E+02 -0.42628623268E+03  0.42681291519E+03  0.00000000000E+00 0. -1.
<mgrwt>
<rscale>  2 0.21196990E+02</rscale>
<asrwt>0</asrwt>
<pdfrwt beam="1">  1       21 0.11457093E-02 0.21196990E+02</pdfrwt>
<pdfrwt beam="2">  1       21 0.68028613E-01 0.21196990E+02</pdfrwt>
<totfact> 0.49995683E+06</totfact>
</mgrwt>
</event>
<event>
 4    1  0.4353697E+006  0.2253204E+02  0.7546771E-02  0.1699210E+00
         21   -1    0    0  504  501  0.00000000000E+00  0.00000000000E+00  0.38860951635E+02  0.38860951635E+02  0.00000000000E+00 0.  1.
         21   -1    0    0  501  502 -0.00000000000E+00 -0.00000000000E+00 -0.22872137139E+02  0.22872137139E+02  0.00000000000E+00 0. -1.
         21    1    1    2  503  502  0.14251294542E+02  0.17452599876E+02 -0.12218109927E+02  0.25631520609E+02  0.00000000000E+00 0. -1.
         21    1    1    2  504  503 -0.14251294542E+02 -0.17452599876E+02  0.28206924423E+02  0.36101568165E+02  0.00000000000E+00 0.  1.
<mgrwt>
<rscale>  2 0.22532036E+02</rscale>
<asrwt>0</asrwt>
<pdfrwt beam="1">  1       21 0.59786080E-02 0.22532036E+02</pdfrwt>
<pdfrwt beam="2">  1       21 0.35187903E-02 0.22532036E+02</pdfrwt>
<totfact> 0.66754258E+07</totfact>
</mgrwt>
</event>
<event>
 4    1  0.4353697E+006  0.3066228E+02  0.7546771E-02  0.1590881E+00
         21   -1    0    0  503  501  0.00000000000E+00  0.00000000000E+00  0.20041712240E+02  0.20041712240E+02  0.00000000000E+00 0. -1.
         21   -1    0    0  501  502 -0.00000000000E+00 -0.00000000000E+00 -0.15465761166E+03  0.15465761166E+03  0.00000000000E+00 0.  1.
         21    1    1    2  503  504 -0.21713359246E+02 -0.21649604794E+02  0.56004441673E+01  0.31169541741E+02  0.00000000000E+00 0. -1.
         21    1    1    2  504  502  0.21713359246E+02  0.21649604794E+02 -0.14021634358E+03  0.14352978216E+03  0.00000000000E+00 0.  1.
<mgrwt>
<rscale>  2 0.30662279E+02</rscale>
<asrwt>0</asrwt>
<pdfrwt beam="1">  1       21 0.30833404E-02 0.30662279E+02</pdfrwt>
<pdfrwt beam="2">  1       21 0.23793478E-01 0.30662279E+02</pdfrwt>
<totfact> 0.85109943E+06</totfact>
</mgrwt>
</event>
<event>
 4    1  0.4353697E+006  0.2074987E+02  0.7546771E-02  0.1730814E+00
         21   -1    0    0  504  501  0.00000000000E+00  0.00000000000E+00  0.11062686635E+01  0.11062686635E+01  0.00000000000E+00 0.  1.
         21   -1    0    0  503  502 -0.00000000000E+00 -0.00000000000E+00 -0.76541812247E+03  0.76541812247E+03  0.00000000000E+00 0. -1.
         21    1    1    2  503  501  0.19738331317E+02 -0.63996550101E+01 -0.65085597882E+03  0.65118665716E+03  0.00000000000E+00 0. -1.
         21    1    1    2  504  502 -0.19738331317E+02  0.63996550101E+01 -0.11345587499E+03  0.11533773397E+03  0.00000000000E+00 0.  1.
<mgrwt>
<rscale>  2 0.20749875E+02</rscale>
<asrwt>0</asrwt>
<pdfrwt beam="1">  1       21 0.17019566E-03 0.20749875E+02</pdfrwt>
<pdfrwt beam="2">  1       21 0.11775630E+00 0.20749875E+02</pdfrwt>
<totfact> 0.25313522E+07</totfact>
</mgrwt>
</event>
<event>
 4    1  0.4353697E+006  0.2152712E+02  0.7546771E-02  0.1716561E+00
         21   -1    0    0  503  501  0.00000000000E+00  0.00000000000E+00  0.38294351085E+03  0.38294351085E+03  0.00000000000E+00 0. -1.
         21   -1    0    0  504  502 -0.00000000000E+00 -0.00000000000E+00 -0.14552143647E+01  0.14552143647E+01  0.00000000000E+00 0. -1.
         21    1    1    2  503  502  0.22446630725E+01  0.21409774126E+02  0.11187021262E+03  0.11392261151E+03  0.00000000000E+00 0. -1.
         21    1    1    2  504  501 -0.22446630725E+01 -0.21409774126E+02  0.26961808386E+03  0.27047611371E+03  0.00000000000E+00 0. -1.
<mgrwt>
<rscale>  2 0.21527121E+02</rscale>
<asrwt>0</asrwt>
<pdfrwt beam="1">  1       21 0.58914306E-01 0.21527121E+02</pdfrwt>
<pdfrwt beam="2">  1       21 0.22387944E-03 0.21527121E+02</pdfrwt>
<totfact> 0.74103797E+07</totfact>
</mgrwt>
</event>
<event>
 4    1  0.4353697E+006  0.2379542E+02  0.7546771E-02  0.1678932E+00
         21   -1    0    0  504  501  0.00000000000E+00  0.00000000000E+00  0.32394482541E+03  0.32394482541E+03  0.00000000000E+00 0.  1.
         21   -1    0    0  503  502 -0.00000000000E+00 -0.00000000000E+00 -0.20767140855E+01  0.20767140855E+01  0.00000000000E+00 0.  1.
         21    1    1    2  503  501 -0.22906690460E+02  0.64424684280E+01  0.96069748059E+02  0.98972816265E+02  0.00000000000E+00 0.  1.
         21    1    1    2  504  502  0.22906690460E+02 -0.64424684280E+01  0.22579836327E+03  0.22704872323E+03  0.00000000000E+00 0.  1.
<mgrwt>
<rscale>  2 0.23795417E+02</rscale>
<asrwt>0</asrwt>
<pdfrwt beam="1">  1       21 0.49837625E-01 0.23795417E+02</pdfrwt>
<pdfrwt beam="2">  1       21 0.31949473E-03 0.23795417E+02</pdfrwt>
<totfact> 0.62960248E+07</totfact>
</mgrwt>
</event>
<event>
 4    1  0.4353697E+006  0.2128434E+02  0.7546771E-02  0.1720931E+00
         21   -1    0    0  503  501  0.00000000000E+00  0.00000000000E+00  0.77809146475E+01  0.77809146475E+01  0.00000000000E+00 0. -1.
         21   -1    0    0  504  502 -0.00000000000E+00 -0.00000000000E+00 -0.88252031693E+02  0.88252031693E+02  0.00000000000E+00 0. -1.
         21    1    1    2  503  502  0.15631253823E+02  0.14446010600E+02 -0.12226204263E+02  0.24545944452E+02  0.00000000000E+00 0. -1.
         21    1    1    2  504  501 -0.15631253823E+02 -0.14446010600E+02 -0.68244912782E+02  0.71487001889E+02  0.00000000000E+00 0. -1.
<mgrwt>
<rscale>  2 0.21284344E+02</rscale>
<asrwt>0</asrwt>
<pdfrwt beam="1">  1       21 0.11970639E-02 0.21284344E+02</pdfrwt>
<pdfrwt beam="2">  1       21 0.13577234E-01 0.21284344E+02</pdfrwt>
<totfact> 0.89361598E+07</totfact>
</mgrwt>
</event>
<event>
 4    1  0.4353697E+006  0.2285750E+02  0.7546771E-02  0.1693830E+00
         21   -1    0    0  504  501  0.00000000000E+00  0.00000000000E+00  0.22313173402E+03  0.22313173402E+03  0.00000000000E+00 0.  1.
         21   -1    0    0  501  502 -0.00000000000E+00 -0.00000000000E+00 -0.86092497028E+01  0.86092497028E+01  0.00000000000E+00 0.  1.
         21    1    1    2  503  502  0.19972498559E+01  0.22770078889E+02  0.83955466776E+01  0.24350579123E+02  0.00000000000E+00 0.  1.
         21    1    1    2  504  503 -0.19972498559E+01 -0.22770078889E+02  0.20612693764E+03  0.20739040460E+03  0.00000000000E+00 0.  1.
<mgrwt>
<rscale>  2 0.22857504E+02</rscale>
<asrwt>0</asrwt>
<pdfrwt beam="1">  1       21 0.34327955E-01 0.22857504E+02</pdfrwt>
<pdfrwt beam="2">  1       21 0.13245001E-02 0.22857504E+02</pdfrwt>
<totfact> 0.15282195E+07</totfact>
</mgrwt>
</event>
<event>
 4    1  0.4353697E+006  0.3024028E+02  0.7546771E-02  0.1595448E+00
         21   -1    0    0  503  501  0.00000000000E+00  0.00000000000E+00  0.36356082839E+02  0.36356082839E+02  0.00000000000E+00 0. -1.
         21   -1    0    0  501  502 -0.00000000000E+00 -0.00000000000E+00 -0.41725588043E+02  0.41725588043E+02  0.00000000000E+00 0. -1.
         21    1    1    2  503  504  0.26587149448E+02 -0.14408259711E+02  0.21919459645E+02  0.37348857744E+02  0.00000000000E+00 0. -1.
         21    1    1    2  504  502 -0.26587149448E+02  0.14408259711E+02 -0.27288964849E+02  0.40732813139E+02  0.00000000000E+00 0. -1.
<mgrwt>
<rscale>  2 0.30240279E+02</rscale>
<asrwt>0</asrwt>
<pdfrwt beam="1">  1       21 0.55932435E-02 0.30240279E+02</pdfrwt>
<pdfrwt beam="2">  1       21 0.64193213E-02 0.30240279E+02</pdfrwt>
<totfact> 0.30526462E+07</totfact>
</mgrwt>
</event>
<event>
 4    1  0.4353697E+006  0.3284493E+02  0.7546771E-02  0.1568615E+00
         21   -1    0    0  504  501  0.00000000000E+00  0.00000000000E+00  0.75573507701E+02  0.75573507701E+02  0.00000000000E+00 0.  1.
         21   -1    0    0  503  502 -0.00000000000E+00 -0.00000000000E+00 -0.16513696423E+02  0.16513696423E+02  0.00000000000E+00 0.  1.
         21    1    1    2  503  501  0.32826326783E+02 -0.11054467557E+01  0.46483940953E+02  0.56917014233E+02  0.00000000000E+00 0.  1.
         21    1    1    2  504  502 -0.32826326783E+02  0.11054467557E+01  0.12575870324E+02  0.35170189892E+02  0.00000000000E+00 0.  1.
<mgrwt>
<rscale>  2 0.32844935E+02</rscale>
<asrwt>0</asrwt>
<pdfrwt beam="1">  1       21 0.11626693E-01 0.32844935E+02</pdfrwt>
<pdfrwt beam="2">  1       21 0.25405687E-02 0.32844935E+02</pdfrwt>
<totfact> 0.40634965E+07</totfact>
</mgrwt>
</event>
<event>
 4    1  0.4353697E+006  0.3196074E+02  0.7546771E-02  0.1577374E+00
         21   -1    0    0  503  501  0.00000000000E+00  0.00000000000E+00  0.25467343607E+02  0.25467343607E+02  0.00000000000E+00 0. -1.
         21   -1    0    0  504  502 -0.00000000000E+00 -0.00000000000E+00 -0.62168982314E+02  0.62168982314E+02  0.00000000000E+00 0. -1.
         21    1    1    2  503  502 -0.31680032623E+02 -0.42266266021E+01 -0.44452138889E+02  0.54749260189E+02  0.00000000000E+00 0. -1.
         21    1    1    2  504  501  0.31680032623E+02  0.42266266021E+01  0.77505001811E+01  0.32887065732E+02  0.00000000000E+00 0. -1.
<mgrwt>
<rscale>  2 0.31960739E+02</rscale>
<asrwt>0</asrwt>
<pdfrwt beam="1">  1       21 0.39180529E-02 0.31960739E+02</pdfrwt>
<pdfrwt beam="2">  1       21 0.95644588E-02 0.31960739E+02</pdfrwt>
<totfact> 0.28309541E+07</totfact>
</mgrwt>
</event>
<event>
 4    1  0.4353697E+006  0.2903957E+02  0.7546771E-02  0.1608954E+00
         21   -1    0    0  503  501  0.00000000000E+00  0.00000000000E+00  0.14566860192E+04  0.14566860192E+04  0.00000000000E+00 0. -1.
         21   -1    0    0  504  502 -0.00000000000E+00 -0.00000000000E+00 -0.64642183647E+00  0.64642183647E+00  0.00000000000E+00 0.  1.
         21    1    1    2  503  502 -0.14029335203E+02 -0.25425857392E+02  0.49254386397E+03  0.49339918363E+03  0.00000000000E+00 0.  1.
         21    1    1    2  504  501  0.14029335203E+02  0.25425857392E+02  0.96349573337E+03  0.96393325738E+03  0.00000000000E+00 0. -1.
<mgrwt>
<rscale>  2 0.29039567E+02</rscale>
<asrwt>0</asrwt>
<pdfrwt beam="1">  1       21 0.22410291E+00 0.29039567E+02</pdfrwt>
<pdfrwt beam="2">  1       21 0.99450679E-04 0.29039567E+02</pdfrwt>
<totfact> 0.11868731E+07</totfact>
</mgrwt>
</event>
<event>
 4    1  0.4353697E+006  0.2356080E+02  0.7546771E-02  0.1682578E+00
         21   -1    0    0  503  501  0.00000000000E+00  0.00000000000E+00  0.34472616147E+02  0.34472616147E+02  0.00000000000E+00 0.  1.
         21   -1    0    0  501  502 -0.00000000000E+00 -0.00000000000E+00 -0.10958278389E+03  0.10958278389E+03  0.00000000000E+00 0.  1.
         21    1    1    2  503  504 -0.22895570528E+02  0.55591315242E+01  0.28970290884E+02  0.37341516400E+02  0.00000000000E+00 0.  1.
         21    1    1    2  504  502  0.22895570528E+02 -0.55591315242E+01 -0.10408045863E+03  0.10671388364E+03  0.00000000000E+00 0.  1.
<mgrwt>
<rscale>  2 0.23560796E+02</rscale>
<asrwt>0</asrwt>
<pdfrwt beam="1">  1       21 0.53034795E-02 0.23560796E+02</pdfrwt>
<pdfrwt beam="2">  1       21 0.16858889E-01 0.23560796E+02</pdfrwt>
<totfact> 0.63225967E+06</totfact>
</mgrwt>
</event>
<event>
 4    1  0.4353697E+006  0.2045714E+02  0.7546771E-02  0.1736387E+00
         21   -1    0    0  503  501  0.00000000000E+00  0.00000000000E+00  0.57599368554E+01  0.57599368554E+01  0.00000000000E+00 0. -1.
         21   -1    0    0  501  502 -0.00000000000E+00 -0.00000000000E+00 -0.22148960078E+03  0.22148960078E+03  0.00000000000E+00 0. -1.
         21    1    1    2  503  504 -0.18829128833E+02 -0.79973972788E+01 -0.14722584199E+02  0.25204145321E+02  0.00000000000E+00 0. -1.
         21    1    1    2  504  502  0.18829128833E+02  0.79973972788E+01 -0.20100707973E+03  0.20204539232E+03  0.00000000000E+00 0. -1.
<mgrwt>
<rscale>  2 0.20457137E+02</rscale>
<asrwt>0</asrwt>
<pdfrwt beam="1">  1       21 0.88614428E-03 0.20457137E+02</pdfrwt>
<pdfrwt beam="2">  1       21 0.34075317E-01 0.20457137E+02</pdfrwt>
<totfact> 0.27660515E+07</totfact>
</mgrwt>
</event>
<event>
 4    1  0.4353697E+006  0.3000991E+02  0.7546771E-02  0.1597979E+00
         21   -1    0    0  503  501  0.00000000000E+00  0.00000000000E+00  0.45109358860E+01  0.45109358860E+01  0.00000000000E+00 0. -1.
         21   -1    0    0  504  502 -0.00000000000E+00 -0.00000000000E+00 -0.20295985093E+03  0.20295985093E+03  0.00000000000E+00 0. -1.
         21    1    1    2  503  502 -0.22492889578E+02 -0.19866171792E+02 -0.11247770058E+03  0.11641231890E+03  0.00000000000E+00 0. -1.
         21    1    1    2  504  501  0.22492889578E+02  0.19866171792E+02 -0.85971214455E+02  0.91058467910E+02  0.00000000000E+00 0. -1.
<mgrwt>
<rscale>  2 0.30009913E+02</rscale>
<asrwt>0</asrwt>
<pdfrwt beam="1">  1       21 0.69398998E-03 0.30009913E+02</pdfrwt>
<pdfrwt beam="2">  1       21 0.31224600E-01 0.30009913E+02</pdfrwt>
<totfact> 0.51001177E+07</totfact>
</mgrwt>
</event>
<event>
 4    1  0.4353697E+006  0.2021167E+02  0.7546771E-02  0.1741151E+00
         21   -1    0    0  502  501  0.00000000000E+00  0.00000000000E+00  0.35747742378E+03  0.35747742378E+03  0.00000000000E+00 0.  1.
         21   -1    0    0  504  502 -0.00000000000E+00 -0.00000000000E+00 -0.58131600489E+01  0.58131600489E+01  0.00000000000E+00 0.  1.
         21    1    1    2  503  501 -0.19394670063E+02  0.56884440897E+01  0.33864733405E+03  0.33924994987E+03  0.00000000000E+00 0.  1.
         21    1    1    2  504  503  0.19394670063E+02 -0.56884440897E+01  0.13016929674E+02  0.24040633959E+02  0.00000000000E+00 0.  1.
<mgrwt>
<rscale>  2 0.20211670E+02</rscale>
<asrwt>0</asrwt>
<pdfrwt beam="1">  1       21 0.54996510E-01 0.20211670E+02</pdfrwt>
<pdfrwt beam="2">  1       21 0.89433259E-03 0.20211670E+02</pdfrwt>
<totfact> 0.10983064E+07</totfact>
</mgrwt>
</event>
<event>
 4    1  0.4353697E+006  0.3550132E+02  0.7546771E-02  0.1544193E+00
         21   -1    0    0  504  501  0.00000000000E+00  0.00000000000E+00  0.18656356448E+02  0.18656356448E+02  0.00000000000E+00 0.  1.
         21   -1    0    0  503  502 -0.00000000000E+00 -0.00000000000E+00 -0.80035425818E+02  0.80035425818E+02  0.00000000000E+00 0.  1.
         21    1    1    2  503  501  0.39556418186E+01 -0.35280261090E+02 -0.11204026789E+02  0.37227330566E+02  0.00000000000E+00 0.  1.
         21    1    1    2  504  502 -0.39556418186E+01  0.35280261090E+02 -0.50175042581E+02  0.61464451700E+02  0.00000000000E+00 0.  1.
<mgrwt>
<rscale>  2 0.35501323E+02</rscale>
<asrwt>0</asrwt>
<pdfrwt beam="1">  1       21 0.28702087E-02 0.35501323E+02</pdfrwt>
<pdfrwt beam="2">  1       21 0.12313142E-01 0.35501323E+02</pdfrwt>
<totfact> 0.30895204E+07</totfact>
</mgrwt>
</event>
<event>
 4    1  0.4353697E+006  0.2019456E+02  0.7546771E-02  0.1741487E+00
         21   -1    0    0  504  501  0.00000000000E+00  0.00000000000E+00  0.41929837363E+01  0.41929837363E+01  0.00000000000E+00 0. -1.
         21   -1    0    0  503  502 -0.00000000000E+00 -0.00000000000E+00 -0.13894664259E+03  0.13894664259E+03  0.00000000000E+00 0. -1.
         21    1    1    2  503  501  0.13478777197E+02  0.15038040863E+02 -0.28176360912E+02  0.34665940373E+02  0.00000000000E+00 0. -1.
         21    1    1    2  504  502 -0.13478777197E+02 -0.15038040863E+02 -0.10657729794E+03  0.10847368596E+03  0.00000000000E+00 0. -1.
<mgrwt>
<rscale>  2 0.20194556E+02</rscale>
<asrwt>0</asrwt>
<pdfrwt beam="1">  1       21 0.64507452E-03 0.20194556E+02</pdfrwt>
<pdfrwt beam="2">  1       21 0.21376403E-01 0.20194556E+02</pdfrwt>
<totfact> 0.10169622E+08</totfact>
</mgrwt>
</event>
<event>
 4    1  0.4353697E+006  0.2379547E+02  0.7546771E-02  0.1678931E+00
         21   -1    0    0  502  501  0.00000000000E+00  0.00000000000E+00  0.31630048227E+02  0.31630048227E+02  0.00000000000E+00 0. -1.
         21   -1    0    0  504  502 -0.00000000000E+00 -0.00000000000E+00 -0.18394685270E+02  0.18394685270E+02  0.00000000000E+00 0. -1.
         21    1    1    2  503  501  0.23766036981E+02  0.11831728857E+01  0.10713362583E+02  0.26095987233E+02  0.00000000000E+00 0. -1.
         21    1    1    2  504  503 -0.23766036981E+02 -0.11831728857E+01  0.25220003739E+01  0.23928746263E+02  0.00000000000E+00 0. -1.
<mgrwt>
<rscale>  2 0.23795470E+02</rscale>
<asrwt>0</asrwt>
<pdfrwt beam="1">  1       21 0.48661613E-02 0.23795470E+02</pdfrwt>
<pdfrwt beam="2">  1       21 0.28299516E-02 0.23795470E+02</pdfrwt>
<totfact> 0.13238165E+08</totfact>
</mgrwt>
</event>
<event>
 4    1  0.4353697E+006  0.4362226E+02  0.7546771E-02  0.1483131E+00
         21   -1    0    0  504  501  0.00000000000E+00  0.00000000000E+00  0.32232591712E+02  0.32232591712E+02  0.00000000000E+00 0. -1.
         21   -1    0    0  503  502 -0.00000000000E+00 -0.00000000000E+00 -0.96058744485E+02  0.96058744485E+02  0.00000000000E+00 0. -1.
         21    1    1    2  503  501 -0.43608746170E+02  0.10855562672E+01 -0.71735705514E+02  0.83957802619E+02  0.00000000000E+00 0. -1.
         21    1    1    2  504  502  0.43608746170E+02 -0.10855562672E+01  0.79095527406E+01  0.44333533578E+02  0.00000000000E+00 0. -1.
<mgrwt>
<rscale>  2 0.43622256E+02</rscale>
<asrwt>0</asrwt>
<pdfrwt beam="1">  1       21 0.49588603E-02 0.43622256E+02</pdfrwt>
<pdfrwt beam="2">  1       21 0.14778268E-01 0.43622256E+02</pdfrwt>
<totfact> 0.96942642E+06</totfact>
</mgrwt>
</event>
<event>
 4    1  0.4353697E+006  0.2031768E+02  0.7546771E-02  0.1739083E+00
         21   -1    0    0  504  501  0.00000000000E+00  0.00000000000E+00  0.14727930649E+03  0.14727930649E+03  0.00000000000E+00 0. -1.
         21   -1    0    0  503  502 -0.00000000000E+00 -0.00000000000E+00 -0.88689769457E+01  0.88689769457E+01  0.00000000000E+00 0. -1.
         21    1    1    2  503  501 -0.92522317919E+01  0.18088788652E+02  0.46360725814E+01  0.20839895322E+02  0.00000000000E+00 0. -1.
         21    1    1    2  504  502  0.92522317919E+01 -0.18088788652E+02  0.13377425696E+03  0.13530838811E+03  0.00000000000E+00 0. -1.
<mgrwt>
<rscale>  2 0.20317679E+02</rscale>
<asrwt>0</asrwt>
<pdfrwt beam="1">  1       21 0.22658353E-01 0.20317679E+02</pdfrwt>
<pdfrwt beam="2">  1       21 0.13644581E-02 0.20317679E+02</pdfrwt>
<totfact> 0.30068096E+07</totfact>
</mgrwt>
</event>
<event>
 4    1  0.4353697E+006  0.2036487E+02  0.7546771E-02  0.1738168E+00
         21   -1    0    0  504  501  0.00000000000E+00  0.00000000000E+00  0.15459949859E+03  0.15459949859E+03  0.00000000000E+00 0. -1.
         21   -1    0    0  501  502 -0.00000000000E+00 -0.00000000000E+00 -0.42742766440E+01  0.42742766440E+01  0.00000000000E+00 0.  1.
         21    1    1    2  503  502  0.44661704778E+01  0.19869102615E+02  0.26687485334E+02  0.33570072847E+02  0.00000000000E+00 0.  1.
         21    1    1    2  504  503 -0.44661704778E+01 -0.19869102615E+02  0.12363773661E+03  0.12530370239E+03  0.00000000000E+00 0. -1.
<mgrwt>
<rscale>  2 0.20364870E+02</rscale>
<asrwt>0</asrwt>
<pdfrwt beam="1">  1       21 0.23784534E-01 0.20364870E+02</pdfrwt>
<pdfrwt beam="2">  1       21 0.65758114E-03 0.20364870E+02</pdfrwt>
<totfact> 0.82158774E+07</totfact>
</mgrwt>
</event>
<event>
 4    1  0.4353697E+006  0.2192154E+02  0.7546771E-02  0.1709613E+00
         21   -1    0    0  503  501  0.00000000000E+00  0.00000000000E+00  0.15901509485E+04  0.15901509485E+04  0.00000000000E+00 0.  1.
         21   -1    0    0  504  502 -0.00000000000E+00 -0.00000000000E+00 -0.82347414527E+01  0.82347414527E+01  0.00000000000E+00 0.  1.
         21    1    1    2  503  502 -0.65133031490E+01  0.20931571345E+02  0.15753491052E+04  0.15755016208E+04  0.00000000000E+00 0.  1.
         21    1    1    2  504  501  0.65133031490E+01 -0.20931571345E+02  0.65671018853E+01  0.22884069220E+02  0.00000000000E+00 0.  1.
<mgrwt>
<rscale>  2 0.21921537E+02</rscale>
<asrwt>0</asrwt>
<pdfrwt beam="1">  1       21 0.24463836E+00 0.21921537E+02</pdfrwt>
<pdfrwt beam="2">  1       21 0.12668846E-02 0.21921537E+02</pdfrwt>
<totfact> 0.22018680E+05</totfact>
</mgrwt>
</event>
<event>
 4    1  0.4353697E+006  0.2005653E+02  0.7546771E-02  0.1744206E+00
         21   -1    0    0  503  501  0.00000000000E+00  0.00000000000E+00  0.14974881672E+02  0.14974881672E+02  0.00000000000E+00 0. -1.
         21   -1    0    0  504  502 -0.00000000000E+00 -0.00000000000E+00 -0.28991904403E+02  0.28991904403E+02  0.00000000000E+00 0.  1.
         21    1    1    2  503  502  0.19970783486E+02  0.18525897431E+01 -0.10508604027E+01  0.20084038174E+02  0.00000000000E+00 0. -1.
         21    1    1    2  504  501 -0.19970783486E+02 -0.18525897431E+01 -0.12966162328E+02  0.23882747901E+02  0.00000000000E+00 0.  1.
<mgrwt>
<rscale>  2 0.20056527E+02</rscale>
<asrwt>0</asrwt>
<pdfrwt beam="1">  1       21 0.23038280E-02 0.20056527E+02</pdfrwt>
<pdfrwt beam="2">  1       21 0.44602929E-02 0.20056527E+02</pdfrwt>
<totfact> 0.19795449E+08</totfact>
</mgrwt>
</event>
<event>
 4    1  0.4353697E+006  0.2193635E+02  0.7546771E-02  0.1709355E+00
         21   -1    0    0  503  501  0.00000000000E+00  0.00000000000E+00  0.16764474777E+02  0.16764474777E+02  0.00000000000E+00 0. -1.
         21   -1    0    0  504  502 -0.00000000000E+00 -0.00000000000E+00 -0.34315382627E+02  0.34315382627E+02  0.00000000000E+00 0. -1.
         21    1    1    2  503  502 -0.21870544103E+02 -0.16978836001E+01  0.15526209254E+01  0.21991228702E+02  0.00000000000E+00 0. -1.
         21    1    1    2  504  501  0.21870544103E+02  0.16978836001E+01 -0.19103528775E+02  0.29088628702E+02  0.00000000000E+00 0. -1.
<mgrwt>
<rscale>  2 0.21936351E+02</rscale>
<asrwt>0</asrwt>
<pdfrwt beam="1">  1       21 0.25791500E-02 0.21936351E+02</pdfrwt>
<pdfrwt beam="2">  1       21 0.52792896E-02 0.21936351E+02</pdfrwt>
<totfact> 0.13103028E+08</totfact>
</mgrwt>
</event>
<event>
 4    1  0.4353697E+006  0.2572980E+02  0.7546771E-02  0.1650736E+00
         21   -1    0    0  504  501  0.00000000000E+00  0.00000000000E+00  0.12579861264E+03  0.12579861264E+03  0.00000000000E+00 0.  1.
         21   -1    0    0  503  502 -0.00000000000E+00 -0.00000000000E+00 -0.54371199037E+01  0.54371199037E+01  0.00000000000E+00 0.  1.
         21    1    1    2  503  501 -0.23615827574E+02  0.10213478443E+02  0.48423305760E+02  0.54834651405E+02  0.00000000000E+00 0.  1.
         21    1    1    2  504  502  0.23615827574E+02 -0.10213478443E+02  0.71938186980E+02  0.76401081143E+02  0.00000000000E+00 0.  1.
<mgrwt>
<rscale>  2 0.25729797E+02</rscale>
<asrwt>0</asrwt>
<pdfrwt beam="1">  1       21 0.19353630E-01 0.25729797E+02</pdfrwt>
<pdfrwt beam="2">  1       21 0.83648008E-03 0.25729797E+02</pdfrwt>
<totfact> 0.87764287E+07</totfact>
</mgrwt>
</event>
<event>
 4    1  0.4353697E+006  0.3728249E+02  0.7546771E-02  0.1529218E+00
         21   -1    0    0  502  501  0.00000000000E+00  0.00000000000E+00  0.57113210952E+02  0.57113210952E+02  0.00000000000E+00 0. -1.
         21   -1    0    0  504  502 -0.00000000000E+00 -0.00000000000E+00 -0.53036639245E+02  0.53036639245E+02  0.00000000000E+00 0. -1.
         21    1    1    2  503  501  0.73816522285E+01 -0.36544433764E+02  0.42551943878E+02  0.56574308273E+02  0.00000000000E+00 0. -1.
         21    1    1    2  504  503 -0.73816522285E+01  0.36544433764E+02 -0.38475372171E+02  0.53575541924E+02  0.00000000000E+00 0. -1.
<mgrwt>
<rscale>  2 0.37282495E+02</rscale>
<asrwt>0</asrwt>
<pdfrwt beam="1">  1       21 0.87866479E-02 0.37282495E+02</pdfrwt>
<pdfrwt beam="2">  1       21 0.81594829E-02 0.37282495E+02</pdfrwt>
<totfact> 0.10150021E+07</totfact>
</mgrwt>
</event>
<event>
 4    1  0.4353697E+006  0.2151476E+02  0.7546771E-02  0.1716782E+00
         21   -1    0    0  503  501  0.00000000000E+00  0.00000000000E+00  0.59080804715E+01  0.59080804715E+01  0.00000000000E+00 0. -1.
         21   -1    0    0  501  502 -0.00000000000E+00 -0.00000000000E+00 -0.82259909697E+02  0.82259909697E+02  0.00000000000E+00 0. -1.
         21    1    1    2  503  504 -0.21466360369E+02 -0.14423460942E+01 -0.28562150844E+02  0.35758655604E+02  0.00000000000E+00 0. -1.
         21    1    1    2  504  502  0.21466360369E+02  0.14423460942E+01 -0.47789678381E+02  0.52409334565E+02  0.00000000000E+00 0. -1.
<mgrwt>
<rscale>  2 0.21514762E+02</rscale>
<asrwt>0</asrwt>
<pdfrwt beam="1">  1       21 0.90893552E-03 0.21514762E+02</pdfrwt>
<pdfrwt beam="2">  1       21 0.12655370E-01 0.21514762E+02</pdfrwt>
<totfact> 0.15246921E+08</totfact>
</mgrwt>
</event>
<event>
 4    1  0.4353697E+006  0.2088934E+02  0.7546771E-02  0.1728200E+00
         21   -1    0    0  503  501  0.00000000000E+00  0.00000000000E+00  0.23726547320E+02  0.23726547320E+02  0.00000000000E+00 0.  1.
         21   -1    0    0  501  502 -0.00000000000E+00 -0.00000000000E+00 -0.60923420485E+02  0.60923420485E+02  0.00000000000E+00 0.  1.
         21    1    1    2  503  504 -0.95440846230E+01  0.18581572361E+02  0.16765668970E+02  0.26785295195E+02  0.00000000000E+00 0.  1.
         21    1    1    2  504  502  0.95440846230E+01 -0.18581572361E+02 -0.53962542134E+02  0.57864672610E+02  0.00000000000E+00 0.  1.
<mgrwt>
<rscale>  2 0.20889337E+02</rscale>
<asrwt>0</asrwt>
<pdfrwt beam="1">  1       21 0.36502381E-02 0.20889337E+02</pdfrwt>
<pdfrwt beam="2">  1       21 0.93728338E-02 0.20889337E+02</pdfrwt>
<totfact> 0.29807453E+07</totfact>
</mgrwt>
</event>
<event>
 4    1  0.4353697E+006  0.2108037E+02  0.7546771E-02  0.1724660E+00
         21   -1    0    0  502  501  0.00000000000E+00  0.00000000000E+00  0.89037851267E+01  0.89037851267E+01  0.00000000000E+00 0.  1.
         21   -1    0    0  503  502 -0.00000000000E+00 -0.00000000000E+00 -0.12303390314E+03  0.12303390314E+03  0.00000000000E+00 0. -1.
         21    1    1    2  503  504 -0.33667611463E+01 -0.20809781464E+02 -0.10792292120E+03  0.10996244361E+03  0.00000000000E+00 0. -1.
         21    1    1    2  504  501  0.33667611463E+01  0.20809781464E+02 -0.62071968107E+01  0.21975244650E+02  0.00000000000E+00 0.  1.
<mgrwt>
<rscale>  2 0.21080372E+02</rscale>
<asrwt>0</asrwt>
<pdfrwt beam="1">  1       21 0.13698132E-02 0.21080372E+02</pdfrwt>
<pdfrwt beam="2">  1       21 0.18928292E-01 0.21080372E+02</pdfrwt>
<totfact> 0.41264975E+07</totfact>
</mgrwt>
</event>
<event>
 4    1  0.4353697E+006  0.2102989E+02  0.7546771E-02  0.1725590E+00
         21   -1    0    0  504  501  0.00000000000E+00  0.00000000000E+00  0.28608189367E+02  0.28608189367E+02  0.00000000000E+00 0.  1.
         21   -1    0    0  503  502 -0.00000000000E+00 -0.00000000000E+00 -0.56836814634E+03  0.56836814634E+03  0.00000000000E+00 0.  1.
         21    1    1    2  503  501 -0.13109490101E+02  0.16443774644E+02  0.24520904674E+02  0.32303733860E+02  0.00000000000E+00 0.  1.
         21    1    1    2  504  502  0.13109490101E+02 -0.16443774644E+02 -0.56428086165E+03  0.56467260185E+03  0.00000000000E+00 0.  1.
<mgrwt>
<rscale>  2 0.21029894E+02</rscale>
<asrwt>0</asrwt>
<pdfrwt beam="1">  1       21 0.44012598E-02 0.21029894E+02</pdfrwt>
<pdfrwt beam="2">  1       21 0.87441255E-01 0.21029894E+02</pdfrwt>
<totfact> 0.37478015E+05</totfact>
</mgrwt>
</event>
<event>
 4    1  0.4353697E+006  0.2970788E+02  0.7546771E-02  0.1601340E+00
         21   -1    0    0  504  501  0.00000000000E+00  0.00000000000E+00  0.16601514878E+02  0.16601514878E+02  0.00000000000E+00 0.  1.
         21   -1    0    0  503  502 -0.00000000000E+00 -0.00000000000E+00 -0.26430831467E+03  0.26430831467E+03  0.00000000000E+00 0. -1.
         21    1    1    2  503  501  0.24597803100E+02 -0.16658526094E+02  0.16842465186E+01  0.29755589312E+02  0.00000000000E+00 0.  1.
         21    1    1    2  504  502 -0.24597803100E+02  0.16658526094E+02 -0.24939104631E+03  0.25115424024E+03  0.00000000000E+00 0. -1.
<mgrwt>
<rscale>  2 0.29707885E+02</rscale>
<asrwt>0</asrwt>
<pdfrwt beam="1">  1       21 0.25540792E-02 0.29707885E+02</pdfrwt>
<pdfrwt beam="2">  1       21 0.40662818E-01 0.29707885E+02</pdfrwt>
<totfact> 0.42284263E+06</totfact>
</mgrwt>
</event>
<event>
 4    1  0.4353697E+006  0.8269444E+02  0.7546771E-02  0.1321574E+00
         21   -1    0    0  503  501  0.00000000000E+00  0.00000000000E+00  0.51568851501E+02  0.51568851501E+02  0.00000000000E+00 0. -1.
         21   -1    0    0  504  502 -0.00000000000E+00 -0.00000000000E+00 -0.14900652498E+03  0.14900652498E+03  0.00000000000E+00 0. -1.
         21    1    1    2  503  502 -0.21374183775E+02 -0.79884386688E+02 -0.15447850446E+02  0.84124949046E+02  0.00000000000E+00 0. -1.
         21    1    1    2  504  501  0.21374183775E+02  0.79884386688E+02 -0.81989823029E+02  0.11645042743E+03  0.00000000000E+00 0. -1.
<mgrwt>
<rscale>  2 0.82694443E+02</rscale>
<asrwt>0</asrwt>
<pdfrwt beam="1">  1       21 0.79336694E-02 0.82694443E+02</pdfrwt>
<pdfrwt beam="2">  1       21 0.22924081E-01 0.82694443E+02</pdfrwt>
<totfact> 0.21261515E+06</totfact>
</mgrwt>
</event>
<event>
 4    1  0.4353697E+006  0.2350452E+02  0.7546771E-02  0.1683460E+00
         21   -1    0    0  503  501  0.00000000000E+00  0.00000000000E+00  0.35913701637E+01  0.35913701637E+01  0.00000000000E+00 0.  1.
         21   -1    0    0  501  502 -0.00000000000E+00 -0.00000000000E+00 -0.28927349432E+03  0.28927349432E+03  0.00000000000E+00 0.  1.
         21    1    1    2  503  504 -0.14889520433E+02 -0.18186942274E+02 -0.42642603419E+02  0.48691419309E+02  0.00000000000E+00 0.  1.
         21    1    1    2  504  502  0.14889520433E+02  0.18186942274E+02 -0.24303952074E+03  0.24417344518E+03  0.00000000000E+00 0.  1.
<mgrwt>
<rscale>  2 0.23504525E+02</rscale>
<asrwt>0</asrwt>
<pdfrwt beam="1">  1       21 0.55251865E-03 0.23504525E+02</pdfrwt>
<pdfrwt beam="2">  1       21 0.44503602E-01 0.23504525E+02</pdfrwt>
<totfact> 0.34911394E+07</totfact>
</mgrwt>
</event>
<event>
 4    1  0.4353697E+006  0.2072517E+02  0.7546771E-02  0.1731280E+00
         21   -1    0    0  503  501  0.00000000000E+00  0.00000000000E+00  0.20429582379E+02  0.20429582379E+02  0.00000000000E+00 0. -1.
         21   -1    0    0  501  502 -0.00000000000E+00 -0.00000000000E+00 -0.15150322494E+03  0.15150322494E+03  0.00000000000E+00 0. -1.
         21    1    1    2  503  504  0.10497675812E+02  0.17869853116E+02  0.14241844404E+02  0.25146828426E+02  0.00000000000E+00 0. -1.
         21    1    1    2  504  502 -0.10497675812E+02 -0.17869853116E+02 -0.14531548696E+03  0.14678597889E+03  0.00000000000E+00 0. -1.
<mgrwt>
<rscale>  2 0.20725174E+02</rscale>
<asrwt>0</asrwt>
<pdfrwt beam="1">  1       21 0.31430126E-02 0.20725174E+02</pdfrwt>
<pdfrwt beam="2">  1       21 0.23308189E-01 0.20725174E+02</pdfrwt>
<totfact> 0.80141843E+06</totfact>
</mgrwt>
</event>
<event>
 4    1  0.4353697E+006  0.2019305E+02  0.7546771E-02  0.1741516E+00
         21   -1    0    0  503  501  0.00000000000E+00  0.00000000000E+00  0.52220309637E+02  0.52220309637E+02  0.00000000000E+00 0.  1.
         21   -1    0    0  504  502 -0.00000000000E+00 -0.00000000000E+00 -0.87771725191E+01  0.87771725191E+01  0.00000000000E+00 0.  1.
         21    1    1    2  503  502  0.20173242428E+02  0.89409423862E+00  0.31853837453E+02  0.37715064299E+02  0.00000000000E+00 0.  1.
         21    1    1    2  504  501 -0.20173242428E+02 -0.89409423862E+00  0.11589299664E+02  0.23282417857E+02  0.00000000000E+00 0.  1.
<mgrwt>
<rscale>  2 0.20193046E+02</rscale>
<asrwt>0</asrwt>
<pdfrwt beam="1">  1       21 0.80338937E-02 0.20193046E+02</pdfrwt>
<pdfrwt beam="2">  1       21 0.13503343E-02 0.20193046E+02</pdfrwt>
<totfact> 0.17456929E+08</totfact>
</mgrwt>
</event>
<event>
 4    1  0.4353697E+006  0.2353445E+02  0.7546771E-02  0.1682991E+00
         21   -1    0    0  503  501  0.00000000000E+00  0.00000000000E+00  0.17712805654E+01  0.17712805654E+01  0.00000000000E+00 0.  1.
         21   -1    0    0  504  502 -0.00000000000E+00 -0.00000000000E+00 -0.34260241042E+03  0.34260241042E+03  0.00000000000E+00 0.  1.
         21    1    1    2  503  502 -0.18976754689E+02 -0.13919522136E+02 -0.11954164064E+03  0.12183625963E+03  0.00000000000E+00 0.  1.
         21    1    1    2  504  501  0.18976754689E+02  0.13919522136E+02 -0.22128948922E+03  0.22253743135E+03  0.00000000000E+00 0.  1.
<mgrwt>
<rscale>  2 0.23534450E+02</rscale>
<asrwt>0</asrwt>
<pdfrwt beam="1">  1       21 0.27250462E-03 0.23534450E+02</pdfrwt>
<pdfrwt beam="2">  1       21 0.52708078E-01 0.23534450E+02</pdfrwt>
<totfact> 0.70978873E+07</totfact>
</mgrwt>
</event>
<event>
 4    1  0.4353697E+006  0.3037235E+02  0.7546771E-02  0.1594009E+00
         21   -1    0    0  502  501  0.00000000000E+00  0.00000000000E+00  0.28345790651E+02  0.28345790651E+02  0.00000000000E+00 0. -1.
         21   -1    0    0  504  502 -0.00000000000E+00 -0.00000000000E+00 -0.34304949927E+02  0.34304949927E+02  0.00000000000E+00 0. -1.
         21    1    1    2  503  501  0.87697185902E+01 -0.29078715298E+02  0.41181000023E+01  0.30650259300E+02  0.00000000000E+00 0. -1.
         21    1    1    2  504  503 -0.87697185902E+01  0.29078715298E+02 -0.10077259279E+02  0.32000481279E+02  0.00000000000E+00 0. -1.
<mgrwt>
<rscale>  2 0.30372350E+02</rscale>
<asrwt>0</asrwt>
<pdfrwt beam="1">  1       21 0.43608909E-02 0.30372350E+02</pdfrwt>
<pdfrwt beam="2">  1       21 0.52776846E-02 0.30372350E+02</pdfrwt>
<totfact> 0.62622110E+07</totfact>
</mgrwt>
</event>
<event>
 4    1  0.4353697E+006  0.2724655E+02  0.7546771E-02  0.1630684E+00
         21   -1    0    0  503  501  0.00000000000E+00  0.00000000000E+00  0.83920848153E+02  0.83920848153E+02  0.00000000000E+00 0.  1.
         21   -1    0    0  504  502 -0.00000000000E+00 -0.00000000000E+00 -0.51338038866E+02  0.51338038866E+02  0.00000000000E+00 0.  1.
         21    1    1    2  503  502 -0.16617481836E+02  0.21592443186E+02  0.77818912326E+02  0.82450939479E+02  0.00000000000E+00 0.  1.
         21    1    1    2  504  501  0.16617481836E+02 -0.21592443186E+02 -0.45236103039E+02  0.52807947540E+02  0.00000000000E+00 0.  1.
<mgrwt>
<rscale>  2 0.27246547E+02</rscale>
<asrwt>0</asrwt>
<pdfrwt beam="1">  1       21 0.12910900E-01 0.27246547E+02</pdfrwt>
<pdfrwt beam="2">  1       21 0.78981599E-02 0.27246547E+02</pdfrwt>
<totfact> 0.53539290E+06</totfact>
</mgrwt>
</event>
<event>
 4    1  0.4353697E+006  0.2156833E+02  0.7546771E-02  0.1715826E+00
         21   -1    0    0  504  501  0.00000000000E+00  0.00000000000E+00  0.73712632097E+01  0.73712632097E+01  0.00000000000E+00 0. -1.
         21   -1    0    0  501  502 -0.00000000000E+00 -0.00000000000E+00 -0.43610656282E+03  0.43610656282E+03  0.00000000000E+00 0.  1.
         21    1    1    2  503  502 -0.15759688853E+02 -0.14724984486E+02 -0.41943598571E+03  0.41999016544E+03  0.00000000000E+00 0.  1.
         21    1    1    2  504  503  0.15759688853E+02  0.14724984486E+02 -0.92993139035E+01  0.23487660589E+02  0.00000000000E+00 0. -1.
<mgrwt>
<rscale>  2 0.21568332E+02</rscale>
<asrwt>0</asrwt>
<pdfrwt beam="1">  1       21 0.11340402E-02 0.21568332E+02</pdfrwt>
<pdfrwt beam="2">  1       21 0.67093332E-01 0.21568332E+02</pdfrwt>
<totfact> 0.52360968E+06</totfact>
</mgrwt>
</event>
<event>
 4    1  0.4353697E+006  0.2242255E+02  0.7546771E-02  0.1701045E+00
         21   -1    0    0  504  501  0.00000000000E+00  0.00000000000E+00  0.91327288657E+02  0.91327288657E+02  0.00000000000E+00 0.  1.
         21   -1    0    0  503  502 -0.00000000000E+00 -0.00000000000E+00 -0.10958225118E+03  0.10958225118E+03  0.00000000000E+00 0.  1.
         21    1    1    2  503  501  0.13774505793E+02 -0.17692760912E+02 -0.10702643252E+03  0.10935002540E+03  0.00000000000E+00 0.  1.
         21    1    1    2  504  502 -0.13774505793E+02  0.17692760912E+02  0.88771469993E+02  0.91559514433E+02  0.00000000000E+00 0.  1.
<mgrwt>
<rscale>  2 0.22422551E+02</rscale>
<asrwt>0</asrwt>
<pdfrwt beam="1">  1       21 0.14050352E-01 0.22422551E+02</pdfrwt>
<pdfrwt beam="2">  1       21 0.16858808E-01 0.22422551E+02</pdfrwt>
<totfact> 0.12690513E+06</totfact>
</mgrwt>
</event>
<event>
 4    1  0.4353697E+006  0.2302106E+02  0.7546771E-02  0.1691169E+00
         21   -1    0    0  504  501  0.00000000000E+00  0.00000000000E+00  0.23428376117E+02  0.23428376117E+02  0.00000000000E+00 0. -1.
         21   -1    0    0  503  502 -0.00000000000E+00 -0.00000000000E+00 -0.25982315836E+02  0.25982315836E+02  0.00000000000E+00 0. -1.
         21    1    1    2  503  501  0.22458553287E+02 -0.50579056668E+01 -0.10163218235E+02  0.25164658360E+02  0.00000000000E+00 0. -1.
         21    1    1    2  504  502 -0.22458553287E+02  0.50579056668E+01  0.76092785163E+01  0.24246033593E+02  0.00000000000E+00 0. -1.
<mgrwt>
<rscale>  2 0.23021056E+02</rscale>
<asrwt>0</asrwt>
<pdfrwt beam="1">  1       21 0.36043655E-02 0.23021056E+02</pdfrwt>
<pdfrwt beam="2">  1       21 0.39972794E-02 0.23021056E+02</pdfrwt>
<totfact> 0.12267022E+08</totfact>
</mgrwt>
</event>
<event>
 4    1  0.4353697E+006  0.2005369E+02  0.7546771E-02  0.1744262E+00
         21   -1    0    0  504  501  0.00000000000E+00  0.00000000000E+00  0.33830058046E+03  0.33830058046E+03  0.00000000000E+00 0. -1.
         21   -1    0    0  503  502 -0.00000000000E+00 -0.00000000000E+00 -0.11887382467E+01  0.11887382467E+01  0.00000000000E+00 0. -1.
         21    1    1    2  503  501  0.12590653412E+02  0.15608525079E+02  0.16842744194E+03  0.16961707994E+03  0.00000000000E+00 0. -1.
         21    1    1    2  504  502 -0.12590653412E+02 -0.15608525079E+02  0.16868440028E+03  0.16987223877E+03  0.00000000000E+00 0. -1.
<mgrwt>
<rscale>  2 0.20053693E+02</rscale>
<asrwt>0</asrwt>
<pdfrwt beam="1">  1       21 0.52046166E-01 0.20053693E+02</pdfrwt>
<pdfrwt beam="2">  1       21 0.18288308E-03 0.20053693E+02</pdfrwt>
<totfact> 0.12411188E+08</totfact>
</mgrwt>
</event>
<event>
 4    1  0.4353697E+006  0.2098379E+02  0.7546771E-02  0.1726443E+00
         21   -1    0    0  503  501  0.00000000000E+00  0.00000000000E+00  0.12143025789E+01  0.12143025789E+01  0.00000000000E+00 0. -1.
         21   -1    0    0  504  502 -0.00000000000E+00 -0.00000000000E+00 -0.37402632775E+03  0.37402632775E+03  0.00000000000E+00 0. -1.
         21    1    1    2  503  502  0.10563724489E+02 -0.18130833937E+02 -0.21918336553E+03  0.22018552890E+03  0.00000000000E+00 0. -1.
         21    1    1    2  504  501 -0.10563724489E+02  0.18130833937E+02 -0.15362865965E+03  0.15505510143E+03  0.00000000000E+00 0. -1.
<mgrwt>
<rscale>  2 0.20983789E+02</rscale>
<asrwt>0</asrwt>
<pdfrwt beam="1">  1       21 0.18681561E-03 0.20983789E+02</pdfrwt>
<pdfrwt beam="2">  1       21 0.57542563E-01 0.20983789E+02</pdfrwt>
<totfact> 0.10011371E+08</totfact>
</mgrwt>
</event>
<event>
 4    1  0.4353697E+006  0.2092909E+02  0.7546771E-02  0.1727459E+00
         21   -1    0    0  504  501  0.00000000000E+00  0.00000000000E+00  0.90073473032E+02  0.90073473032E+02  0.00000000000E+00 0.  1.
         21   -1    0    0  503  502 -0.00000000000E+00 -0.00000000000E+00 -0.81826913948E+01  0.81826913948E+01  0.00000000000E+00 0.  1.
         21    1    1    2  503  501  0.77025924335E+01 -0.19460135207E+02  0.72237219899E+02  0.75207996458E+02  0.00000000000E+00 0.  1.
         21    1    1    2  504  502 -0.77025924335E+01  0.19460135207E+02  0.96535617380E+01  0.23048167969E+02  0.00000000000E+00 0.  1.
<mgrwt>
<rscale>  2 0.20929090E+02</rscale>
<asrwt>0</asrwt>
<pdfrwt beam="1">  1       21 0.13857457E-01 0.20929090E+02</pdfrwt>
<pdfrwt beam="2">  1       21 0.12588757E-02 0.20929090E+02</pdfrwt>
<totfact> 0.79656246E+07</totfact>
</mgrwt>
</event>
<event>
 4    1  0.4353697E+006  0.3922062E+02  0.7546771E-02  0.1514026E+00
         21   -1    0    0  504  501  0.00000000000E+00  0.00000000000E+00  0.43754174231E+02  0.43754174231E+02  0.00000000000E+00 0. -1.
         21   -1    0    0  503  502 -0.00000000000E+00 -0.00000000000E+00 -0.37108017258E+02  0.37108017258E+02  0.00000000000E+00 0. -1.
         21    1    1    2  503  501 -0.32678160438E+02  0.21688586636E+02 -0.59480782593E+01  0.39669088656E+02  0.00000000000E+00 0. -1.
         21    1    1    2  504  502  0.32678160438E+02 -0.21688586636E+02  0.12594235232E+02  0.41193102832E+02  0.00000000000E+00 0. -1.
<mgrwt>
<rscale>  2 0.39220619E+02</rscale>
<asrwt>0</asrwt>
<pdfrwt beam="1">  1       21 0.67314115E-02 0.39220619E+02</pdfrwt>
<pdfrwt beam="2">  1       21 0.57089257E-02 0.39220619E+02</pdfrwt>
<totfact> 0.28687190E+07</totfact>
</mgrwt>
</event>
<event>
 4    1  0.4353697E+006  0.3442462E+02  0.7546771E-02  0.1553770E+00
         21   -1    0    0  503  501  0.00000000000E+00  0.00000000000E+00  0.60087270172E+01  0.60087270172E+01  0.00000000000E+00 0. -1.
         21   -1    0    0  504  502 -0.00000000000E+00 -0.00000000000E+00 -0.13301081501E+04  0.13301081501E+04  0.00000000000E+00 0. -1.
         21    1    1    2  503  502 -0.14639064165E+02 -0.31156897159E+02 -0.45505720011E+02  0.57059836960E+02  0.00000000000E+00 0. -1.
         21    1    1    2  504  501  0.14639064165E+02  0.31156897159E+02 -0.12785937030E+04  0.12790570401E+04  0.00000000000E+00 0. -1.
<mgrwt>
<rscale>  2 0.34424620E+02</rscale>
<asrwt>0</asrwt>
<pdfrwt beam="1">  1       21 0.92442035E-03 0.34424620E+02</pdfrwt>
<pdfrwt beam="2">  1       21 0.20463184E+00 0.34424620E+02</pdfrwt>
<totfact> 0.57244146E+05</totfact>
</mgrwt>
</event>
<event>
 4    1  0.4353697E+006  0.2137764E+02  0.7546771E-02  0.1719243E+00
         21   -1    0    0  504  501  0.00000000000E+00  0.00000000000E+00  0.57115087346E+01  0.57115087346E+01  0.00000000000E+00 0. -1.
         21   -1    0    0  503  502 -0.00000000000E+00 -0.00000000000E+00 -0.81808626348E+02  0.81808626348E+02  0.00000000000E+00 0. -1.
         21    1    1    2  503  501 -0.20986502474E+02  0.40706515386E+01 -0.31568103966E+02  0.38125433480E+02  0.00000000000E+00 0. -1.
         21    1    1    2  504  502  0.20986502474E+02 -0.40706515386E+01 -0.44529013648E+02  0.49394701603E+02  0.00000000000E+00 0. -1.
<mgrwt>
<rscale>  2 0.21377640E+02</rscale>
<asrwt>0</asrwt>
<pdfrwt beam="1">  1       21 0.87869373E-03 0.21377640E+02</pdfrwt>
<pdfrwt beam="2">  1       21 0.12585941E-01 0.21377640E+02</pdfrwt>
<totfact> 0.16154355E+08</totfact>
</mgrwt>
</event>
<event>
 4    1  0.4353697E+006  0.2570826E+02  0.7546771E-02  0.1651032E+00
         21   -1    0    0  504  501  0.00000000000E+00  0.00000000000E+00  0.26506328188E+02  0.26506328188E+02  0.00000000000E+00 0.  1.
         21   -1    0    0  501  502 -0.00000000000E+00 -0.00000000000E+00 -0.60207498995E+02  0.60207498995E+02  0.00000000000E+00 0. -1.
         21    1    1    2  503  502  0.73673093946E+01  0.24630012635E+02 -0.50036664722E+02  0.56254622802E+02  0.00000000000E+00 0. -1.
         21    1    1    2  504  503 -0.73673093946E+01 -0.24630012635E+02  0.16335493914E+02  0.30459204381E+02  0.00000000000E+00 0.  1.
<mgrwt>
<rscale>  2 0.25708263E+02</rscale>
<asrwt>0</asrwt>
<pdfrwt beam="1">  1       21 0.40778967E-02 0.25708263E+02</pdfrwt>
<pdfrwt beam="2">  1       21 0.92626921E-02 0.25708263E+02</pdfrwt>
<totfact> 0.26795716E+07</totfact>
</mgrwt>
</event>
<event>
 4    1  0.4353697E+006  0.2781672E+02  0.7546771E-02  0.1623557E+00
         21   -1    0    0  504  501  0.00000000000E+00  0.00000000000E+00  0.50765155124E+01  0.50765155124E+01  0.00000000000E+00 0.  1.
         21   -1    0    0  501  502 -0.00000000000E+00 -0.00000000000E+00 -0.15249612351E+03  0.15249612351E+03  0.00000000000E+00 0.  1.
         21    1    1    2  503  502 -0.13185262893E+02 -0.24493241024E+02 -0.75452871249E+02  0.80417074015E+02  0.00000000000E+00 0.  1.
         21    1    1    2  504  503  0.13185262893E+02  0.24493241024E+02 -0.71966736747E+02  0.77155565006E+02  0.00000000000E+00 0.  1.
<mgrwt>
<rscale>  2 0.27816722E+02</rscale>
<asrwt>0</asrwt>
<pdfrwt beam="1">  1       21 0.78100229E-03 0.27816722E+02</pdfrwt>
<pdfrwt beam="2">  1       21 0.23460945E-01 0.27816722E+02</pdfrwt>
<totfact> 0.70573260E+07</totfact>
</mgrwt>
</event>
<event>
 4    1  0.4353697E+006  0.2144702E+02  0.7546771E-02  0.1717995E+00
         21   -1    0    0  503  501  0.00000000000E+00  0.00000000000E+00  0.24716366258E+03  0.24716366258E+03  0.00000000000E+00 0. -1.
         21   -1    0    0  504  502 -0.00000000000E+00 -0.00000000000E+00 -0.42880298593E+01  0.42880298593E+01  0.00000000000E+00 0. -1.
         21    1    1    2  503  502  0.19597508022E+02  0.87127674989E+01  0.21602496162E+03  0.21708698414E+03  0.00000000000E+00 0. -1.
         21    1    1    2  504  501 -0.19597508022E+02 -0.87127674989E+01  0.26850671095E+02  0.34364708298E+02  0.00000000000E+00 0. -1.
<mgrwt>
<rscale>  2 0.21447019E+02</rscale>
<asrwt>0</asrwt>
<pdfrwt beam="1">  1       21 0.38025168E-01 0.21447019E+02</pdfrwt>
<pdfrwt beam="2">  1       21 0.65969709E-03 0.21447019E+02</pdfrwt>
<totfact> 0.35393462E+07</totfact>
</mgrwt>
</event>
<event>
 4    1  0.4353697E+006  0.3162405E+02  0.7546771E-02  0.1580801E+00
         21   -1    0    0  503  501  0.00000000000E+00  0.00000000000E+00  0.65489156336E+03  0.65489156336E+03  0.00000000000E+00 0. -1.
         21   -1    0    0  504  502 -0.00000000000E+00 -0.00000000000E+00 -0.18454229298E+01  0.18454229298E+01  0.00000000000E+00 0. -1.
         21    1    1    2  503  502  0.28906380295E+02 -0.12825832248E+02  0.46290341007E+03  0.46398237882E+03  0.00000000000E+00 0. -1.
         21    1    1    2  504  501 -0.28906380295E+02  0.12825832248E+02  0.19014273036E+03  0.19275460747E+03  0.00000000000E+00 0. -1.
<mgrwt>
<rscale>  2 0.31624054E+02</rscale>
<asrwt>0</asrwt>
<pdfrwt beam="1">  1       21 0.10075236E+00 0.31624054E+02</pdfrwt>
<pdfrwt beam="2">  1       21 0.28391174E-03 0.31624054E+02</pdfrwt>
<totfact> 0.18366764E+07</totfact>
</mgrwt>
</event>
<event>
 4    1  0.4353697E+006  0.2511393E+02  0.7546771E-02  0.1659371E+00
         21   -1    0    0  504  501  0.00000000000E+00  0.00000000000E+00  0.17358270975E+04  0.17358270975E+04  0.00000000000E+00 0.  1.
         21   -1    0    0  503  502 -0.00000000000E+00 -0.00000000000E+00 -0.16076025774E+02  0.16076025774E+02  0.00000000000E+00 0. -1.
         21    1    1    2  503  501  0.64158445668E+01 -0.24280572611E+02 -0.61203858657E+01  0.25848953382E+02  0.00000000000E+00 0. -1.
         21    1    1    2  504  502 -0.64158445668E+01  0.24280572611E+02  0.17258714576E+04  0.17260541699E+04  0.00000000000E+00 0.  1.
<mgrwt>
<rscale>  2 0.25113926E+02</rscale>
<asrwt>0</asrwt>
<pdfrwt beam="1">  1       21 0.26705017E+00 0.25113926E+02</pdfrwt>
<pdfrwt beam="2">  1       21 0.24732361E-02 0.25113926E+02</pdfrwt>
<totfact> 0.60644059E+04</totfact>
</mgrwt>
</event>
<event>
 4    1  0.4353697E+006  0.2756709E+02  0.7546771E-02  0.1626651E+00
         21   -1    0    0  504  501  0.00000000000E+00  0.00000000000E+00  0.11664696478E+03  0.11664696478E+03  0.00000000000E+00 0.  1.
         21   -1    0    0  503  502 -0.00000000000E+00 -0.00000000000E+00 -0.81285729448E+02  0.81285729448E+02  0.00000000000E+00 0.  1.
         21    1    1    2  503  501  0.44377239909E+00 -0.27563516848E+02  0.11259815441E+03  0.11592363336E+03  0.00000000000E+00 0.  1.
         21    1    1    2  504  502 -0.44377239909E+00  0.27563516848E+02 -0.77236919080E+02  0.82009060865E+02  0.00000000000E+00 0.  1.
<mgrwt>
<rscale>  2 0.27567089E+02</rscale>
<asrwt>0</asrwt>
<pdfrwt beam="1">  1       21 0.17945687E-01 0.27567089E+02</pdfrwt>
<pdfrwt beam="2">  1       21 0.12505497E-01 0.27567089E+02</pdfrwt>
<totfact> 0.14167294E+06</totfact>
</mgrwt>
</event>
<event>
 4    1  0.4353697E+006  0.2404145E+02  0.7546771E-02  0.1675164E+00
         21   -1    0    0  502  501  0.00000000000E+00  0.00000000000E+00  0.52271037604E+01  0.52271037604E+01  0.00000000000E+00 0. -1.
         21   -1    0    0  504  502 -0.00000000000E+00 -0.00000000000E+00 -0.25134631143E+03  0.25134631143E+03  0.00000000000E+00 0.  1.
         21    1    1    2  503  501  0.19678489145E+02 -0.13811171894E+02 -0.27052984037E+02  0.36191923815E+02  0.00000000000E+00 0. -1.
         21    1    1    2  504  503 -0.19678489145E+02  0.13811171894E+02 -0.21906622364E+03  0.22038149138E+03  0.00000000000E+00 0.  1.
<mgrwt>
<rscale>  2 0.24041452E+02</rscale>
<asrwt>0</asrwt>
<pdfrwt beam="1">  1       21 0.80417002E-03 0.24041452E+02</pdfrwt>
<pdfrwt beam="2">  1       21 0.38668653E-01 0.24041452E+02</pdfrwt>
<totfact> 0.26208618E+07</totfact>
</mgrwt>
</event>
<event>
 4    1  0.4353697E+006  0.2630250E+02  0.7546771E-02  0.1642969E+00
         21   -1    0    0  504  501  0.00000000000E+00  0.00000000000E+00  0.11183386031E+01  0.11183386031E+01  0.00000000000E+00 0. -1.
         21   -1    0    0  501  502 -0.00000000000E+00 -0.00000000000E+00 -0.11738283620E+04  0.11738283620E+04  0.00000000000E+00 0. -1.
         21    1    1    2  503  502  0.10671569653E+02  0.24040364736E+02 -0.99038690698E+03  0.99073611374E+03  0.00000000000E+00 0. -1.
         21    1    1    2  504  503 -0.10671569653E+02 -0.24040364736E+02 -0.18232311644E+03  0.18421058690E+03  0.00000000000E+00 0. -1.
<mgrwt>
<rscale>  2 0.26302501E+02</rscale>
<asrwt>0</asrwt>
<pdfrwt beam="1">  1       21 0.17205191E-03 0.26302501E+02</pdfrwt>
<pdfrwt beam="2">  1       21 0.18058917E+00 0.26302501E+02</pdfrwt>
<totfact> 0.94107904E+06</totfact>
</mgrwt>
</event>
<event>
 4    1  0.4353697E+006  0.2168927E+02  0.7546771E-02  0.1713682E+00
         21   -1    0    0  504  501  0.00000000000E+00  0.00000000000E+00  0.20480350092E+03  0.20480350092E+03  0.00000000000E+00 0. -1.
         21   -1    0    0  503  502 -0.00000000000E+00 -0.00000000000E+00 -0.23999938613E+01  0.23999938613E+01  0.00000000000E+00 0.  1.
         21    1    1    2  503  501 -0.10365060024E+02  0.19052290621E+02  0.12266840842E+03  0.12457111492E+03  0.00000000000E+00 0. -1.
         21    1    1    2  504  502  0.10365060024E+02 -0.19052290621E+02  0.79735098640E+02  0.82632379866E+02  0.00000000000E+00 0.  1.
<mgrwt>
<rscale>  2 0.21689266E+02</rscale>
<asrwt>0</asrwt>
<pdfrwt beam="1">  1       21 0.31508217E-01 0.21689266E+02</pdfrwt>
<pdfrwt beam="2">  1       21 0.36922999E-03 0.21689266E+02</pdfrwt>
<totfact> 0.11792598E+08</totfact>
</mgrwt>
</event>
<event>
 4    1  0.4353697E+006  0.2488406E+02  0.7546771E-02  0.1662673E+00
         21   -1    0    0  504  501  0.00000000000E+00  0.00000000000E+00  0.44516742250E+03  0.44516742250E+03  0.00000000000E+00 0. -1.
         21   -1    0    0  503  502 -0.00000000000E+00 -0.00000000000E+00 -0.76370952473E+01  0.76370952473E+01  0.00000000000E+00 0. -1.
         21    1    1    2  503  501  0.64115583277E+01 -0.24043879059E+02  0.14016127550E+02  0.28559902519E+02  0.00000000000E+00 0. -1.
         21    1    1    2  504  502 -0.64115583277E+01  0.24043879059E+02  0.42351419970E+03  0.42424461523E+03  0.00000000000E+00 0. -1.
<mgrwt>
<rscale>  2 0.24884055E+02</rscale>
<asrwt>0</asrwt>
<pdfrwt beam="1">  1       21 0.68487276E-01 0.24884055E+02</pdfrwt>
<pdfrwt beam="2">  1       21 0.11749381E-02 0.24884055E+02</pdfrwt>
<totfact> 0.48626308E+06</totfact>
</mgrwt>
</event>
<event>
 4    1  0.4353697E+006  0.2029054E+02  0.7546771E-02  0.1739611E+00
         21   -1    0    0  503  501  0.00000000000E+00  0.00000000000E+00  0.87581437133E+02  0.87581437133E+02  0.00000000000E+00 0. -1.
         21   -1    0    0  501  502 -0.00000000000E+00 -0.00000000000E+00 -0.14475436665E+03  0.14475436665E+03  0.00000000000E+00 0.  1.
         21    1    1    2  503  504  0.20226157850E+02 -0.16151103224E+01  0.85679617780E+02  0.88049434670E+02  0.00000000000E+00 0. -1.
         21    1    1    2  504  502 -0.20226157850E+02  0.16151103224E+01 -0.14285254729E+03  0.14428636911E+03  0.00000000000E+00 0.  1.
<mgrwt>
<rscale>  2 0.20290541E+02</rscale>
<asrwt>0</asrwt>
<pdfrwt beam="1">  1       21 0.13474067E-01 0.20290541E+02</pdfrwt>
<pdfrwt beam="2">  1       21 0.22269902E-01 0.20290541E+02</pdfrwt>
<totfact> 0.83200396E+05</totfact>
</mgrwt>
</event>
<event>
 4    1  0.4353697E+006  0.2754920E+02  0.7546771E-02  0.1626874E+00
         21   -1    0    0  504  501  0.00000000000E+00  0.00000000000E+00  0.20800650453E+02  0.20800650453E+02  0.00000000000E+00 0.  1.
         21   -1    0    0  503  502 -0.00000000000E+00 -0.00000000000E+00 -0.40065555085E+03  0.40065555085E+03  0.00000000000E+00 0.  1.
         21    1    1    2  503  501 -0.46808134345E+01 -0.27148630414E+02 -0.39083115787E+03  0.39180090876E+03  0.00000000000E+00 0.  1.
         21    1    1    2  504  502  0.46808134345E+01  0.27148630414E+02  0.10976257468E+02  0.29655292542E+02  0.00000000000E+00 0.  1.
<mgrwt>
<rscale>  2 0.27549195E+02</rscale>
<asrwt>0</asrwt>
<pdfrwt beam="1">  1       21 0.32001001E-02 0.27549195E+02</pdfrwt>
<pdfrwt beam="2">  1       21 0.61639316E-01 0.27549195E+02</pdfrwt>
<totfact> 0.13016211E+06</totfact>
</mgrwt>
</event>
<event>
 4    1  0.4353697E+006  0.2798758E+02  0.7546771E-02  0.1621461E+00
         21   -1    0    0  504  501  0.00000000000E+00  0.00000000000E+00  0.19883703266E+02  0.19883703266E+02  0.00000000000E+00 0. -1.
         21   -1    0    0  503  502 -0.00000000000E+00 -0.00000000000E+00 -0.50860696538E+02  0.50860696538E+02  0.00000000000E+00 0.  1.
         21    1    1    2  503  501  0.25408827981E+02 -0.11734409189E+02 -0.32283654336E+02  0.42726329536E+02  0.00000000000E+00 0.  1.
         21    1    1    2  504  502 -0.25408827981E+02  0.11734409189E+02  0.13066610633E+01  0.28018070267E+02  0.00000000000E+00 0. -1.
<mgrwt>
<rscale>  2 0.27987585E+02</rscale>
<asrwt>0</asrwt>
<pdfrwt beam="1">  1       21 0.30590313E-02 0.27987585E+02</pdfrwt>
<pdfrwt beam="2">  1       21 0.78247225E-02 0.27987585E+02</pdfrwt>
<totfact> 0.56757080E+07</totfact>
</mgrwt>
</event>
<event>
 4    1  0.4353697E+006  0.2423018E+02  0.7546771E-02  0.1672312E+00
         21   -1    0    0  503  501  0.00000000000E+00  0.00000000000E+00  0.19957267303E+02  0.19957267303E+02  0.00000000000E+00 0.  1.
         21   -1    0    0  504  502 -0.00000000000E+00 -0.00000000000E+00 -0.35959488094E+02  0.35959488094E+02  0.00000000000E+00 0. -1.
         21    1    1    2  503  502  0.18814371424E+02 -0.15268300184E+02  0.39235412823E+01  0.24545788616E+02  0.00000000000E+00 0.  1.
         21    1    1    2  504  501 -0.18814371424E+02  0.15268300184E+02 -0.19925762074E+02  0.31370966781E+02  0.00000000000E+00 0. -1.
<mgrwt>
<rscale>  2 0.24230179E+02</rscale>
<asrwt>0</asrwt>
<pdfrwt beam="1">  1       21 0.30703488E-02 0.24230179E+02</pdfrwt>
<pdfrwt beam="2">  1       21 0.55322290E-02 0.24230179E+02</pdfrwt>
<totfact> 0.95481283E+07</totfact>
</mgrwt>
</event>
<event>
 4    1  0.4353697E+006  0.2187909E+02  0.7546771E-02  0.1710352E+00
         21   -1    0    0  503  501  0.00000000000E+00  0.00000000000E+00  0.36955738060E+00  0.36955738060E+00  0.00000000000E+00 0.  1.
         21   -1    0    0  504  502 -0.00000000000E+00 -0.00000000000E+00 -0.13594107934E+04  0.13594107934E+04  0.00000000000E+00 0. -1.
         21    1    1    2  503  502 -0.45822336120E+01 -0.21393869050E+02 -0.53189339717E+03  0.53234319800E+03  0.00000000000E+00 0.  1.
         21    1    1    2  504  501  0.45822336120E+01  0.21393869050E+02 -0.82714783883E+03  0.82743715277E+03  0.00000000000E+00 0. -1.
<mgrwt>
<rscale>  2 0.21879088E+02</rscale>
<asrwt>0</asrwt>
<pdfrwt beam="1">  1       21 0.56854869E-04 0.21879088E+02</pdfrwt>
<pdfrwt beam="2">  1       21 0.20914054E+00 0.21879088E+02</pdfrwt>
<totfact> 0.30580500E+07</totfact>
</mgrwt>
</event>
<event>
 4    1  0.4353697E+006  0.2393332E+02  0.7546771E-02  0.1676813E+00
         21   -1    0    0  504  501  0.00000000000E+00  0.00000000000E+00  0.64512087940E+01  0.64512087940E+01  0.00000000000E+00 0. -1.
         21   -1    0    0  503  502 -0.00000000000E+00 -0.00000000000E+00 -0.33313442745E+03  0.33313442745E+03  0.00000000000E+00 0.  1.
         21    1    1    2  503  501 -0.28473023985E+00 -0.23931624734E+02 -0.17926125381E+02  0.29902336111E+02  0.00000000000E+00 0. -1.
         21    1    1    2  504  502  0.28473023985E+00  0.23931624734E+02 -0.30875709328E+03  0.30968330014E+03  0.00000000000E+00 0.  1.
<mgrwt>
<rscale>  2 0.23933318E+02</rscale>
<asrwt>0</asrwt>
<pdfrwt beam="1">  1       21 0.99249362E-03 0.23933318E+02</pdfrwt>
<pdfrwt beam="2">  1       21 0.51251453E-01 0.23933318E+02</pdfrwt>
<totfact> 0.11133487E+07</totfact>
</mgrwt>
</event>
<event>
 4    1  0.4353697E+006  0.2052651E+02  0.7546771E-02  0.1735056E+00
         21   -1    0    0  504  501  0.00000000000E+00  0.00000000000E+00  0.50869435585E+02  0.50869435585E+02  0.00000000000E+00 0. -1.
         21   -1    0    0  503  502 -0.00000000000E+00 -0.00000000000E+00 -0.27772912875E+03  0.27772912875E+03  0.00000000000E+00 0.  1.
         21    1    1    2  503  501 -0.20269237686E+02  0.32397077664E+01  0.48400939385E+02  0.52573649637E+02  0.00000000000E+00 0. -1.
         21    1    1    2  504  502  0.20269237686E+02 -0.32397077664E+01 -0.27526063255E+03  0.27602491470E+03  0.00000000000E+00 0.  1.
<mgrwt>
<rscale>  2 0.20526512E+02</rscale>
<asrwt>0</asrwt>
<pdfrwt beam="1">  1       21 0.78260669E-02 0.20526512E+02</pdfrwt>
<pdfrwt beam="2">  1       21 0.42727559E-01 0.20526512E+02</pdfrwt>
<totfact> 0.62431939E+05</totfact>
</mgrwt>
</event>
<event>
 4    1  0.4353697E+006  0.2120462E+02  0.7546771E-02  0.1722382E+00
         21   -1    0    0  504  501  0.00000000000E+00  0.00000000000E+00  0.29764576178E+03  0.29764576178E+03  0.00000000000E+00 0.  1.
         21   -1    0    0  503  502 -0.00000000000E+00 -0.00000000000E+00 -0.26067709108E+01  0.26067709108E+01  0.00000000000E+00 0.  1.
         21    1    1    2  503  501 -0.18354313994E+02  0.10618625534E+02  0.24486954102E+03  0.24578593973E+03  0.00000000000E+00 0.  1.
         21    1    1    2  504  502  0.18354313994E+02 -0.10618625534E+02  0.50169449848E+02  0.54466592958E+02  0.00000000000E+00 0.  1.
<mgrwt>
<rscale>  2 0.21204623E+02</rscale>
<asrwt>0</asrwt>
<pdfrwt beam="1">  1       21 0.45791629E-01 0.21204623E+02</pdfrwt>
<pdfrwt beam="2">  1       21 0.40104191E-03 0.21204623E+02</pdfrwt>
<totfact> 0.51698718E+07</totfact>
</mgrwt>
</event>
<event>
 4    1  0.4353697E+006  0.3018040E+02  0.7546771E-02  0.1596103E+00
         21   -1    0    0  503  501  0.00000000000E+00  0.00000000000E+00  0.67057328653E+02  0.67057328653E+02  0.00000000000E+00 0. -1.
         21   -1    0    0  501  502 -0.00000000000E+00 -0.00000000000E+00 -0.29540514803E+02  0.29540514803E+02  0.00000000000E+00 0.  1.
         21    1    1    2  503  504  0.17884191955E+01 -0.30127368244E+02  0.54256708154E+02  0.62085804660E+02  0.00000000000E+00 0. -1.
         21    1    1    2  504  502 -0.17884191955E+01  0.30127368244E+02 -0.16739894304E+02  0.34512038796E+02  0.00000000000E+00 0.  1.
<mgrwt>
<rscale>  2 0.30180404E+02</rscale>
<asrwt>0</asrwt>
<pdfrwt beam="1">  1       21 0.10316512E-01 0.30180404E+02</pdfrwt>
<pdfrwt beam="2">  1       21 0.45446946E-02 0.30180404E+02</pdfrwt>
<totfact> 0.19468637E+07</totfact>
</mgrwt>
</event>
<event>
 4    1  0.4353697E+006  0.2607447E+02  0.7546771E-02  0.1646032E+00
         21   -1    0    0  503  501  0.00000000000E+00  0.00000000000E+00  0.83218572555E+03  0.83218572555E+03  0.00000000000E+00 0. -1.
         21   -1    0    0  504  502 -0.00000000000E+00 -0.00000000000E+00 -0.13552521656E+02  0.13552521656E+02  0.00000000000E+00 0. -1.
         21    1    1    2  503  502 -0.54727414347E+01  0.25493664202E+02 -0.60863587005E+00  0.26081569179E+02  0.00000000000E+00 0. -1.
         21    1    1    2  504  501  0.54727414347E+01 -0.25493664202E+02  0.81924183976E+03  0.81965667802E+03  0.00000000000E+00 0. -1.
<mgrwt>
<rscale>  2 0.26074467E+02</rscale>
<asrwt>0</asrwt>
<pdfrwt beam="1">  1       21 0.12802853E+00 0.26074467E+02</pdfrwt>
<pdfrwt beam="2">  1       21 0.20850040E-02 0.26074467E+02</pdfrwt>
<totfact> 0.52213505E+05</totfact>
</mgrwt>
</event>
<event>
 4    1  0.4353697E+006  0.2424041E+02  0.7546771E-02  0.1672158E+00
         21   -1    0    0  502  501  0.00000000000E+00  0.00000000000E+00  0.59754454782E+02  0.59754454782E+02  0.00000000000E+00 0.  1.
         21   -1    0    0  504  502 -0.00000000000E+00 -0.00000000000E+00 -0.11566707200E+03  0.11566707200E+03  0.00000000000E+00 0. -1.
         21    1    1    2  503  501 -0.19597018609E+02  0.14267255326E+02  0.55943248587E+02  0.60969211700E+02  0.00000000000E+00 0.  1.
         21    1    1    2  504  503  0.19597018609E+02 -0.14267255326E+02 -0.11185586581E+03  0.11445231509E+03  0.00000000000E+00 0. -1.
<mgrwt>
<rscale>  2 0.24240415E+02</rscale>
<asrwt>0</asrwt>
<pdfrwt beam="1">  1       21 0.91929932E-02 0.24240415E+02</pdfrwt>
<pdfrwt beam="2">  1       21 0.17794934E-01 0.24240415E+02</pdfrwt>
<totfact> 0.23700162E+06</totfact>
</mgrwt>
</event>
<event>
 4    1  0.4353697E+006  0.3729979E+02  0.7546771E-02  0.1529077E+00
         21   -1    0    0  502  501  0.00000000000E+00  0.00000000000E+00  0.21957815090E+04  0.21957815090E+04  0.00000000000E+00 0. -1.
         21   -1    0    0  503  502 -0.00000000000E+00 -0.00000000000E+00 -0.18336799712E+01  0.18336799712E+01  0.00000000000E+00 0.  1.
         21    1    1    2  503  504 -0.18408946856E+02  0.32440480420E+02  0.20805375328E+03  0.21137085501E+03  0.00000000000E+00 0.  1.
         21    1    1    2  504  501  0.18408946856E+02 -0.32440480420E+02  0.19858940758E+04  0.19862443340E+04  0.00000000000E+00 0. -1.
<mgrwt>
<rscale>  2 0.37299787E+02</rscale>
<asrwt>0</asrwt>
<pdfrwt beam="1">  1       21 0.33781044E+00 0.37299787E+02</pdfrwt>
<pdfrwt beam="2">  1       21 0.28210637E-03 0.37299787E+02</pdfrwt>
<totfact> 0.68159660E+05</totfact>
</mgrwt>
</event>
<event>
 4    1  0.4353697E+006  0.2473103E+02  0.7546771E-02  0.1664896E+00
         21   -1    0    0  504  501  0.00000000000E+00  0.00000000000E+00  0.11398314249E+04  0.11398314249E+04  0.00000000000E+00 0.  1.
         21   -1    0    0  501  502 -0.00000000000E+00 -0.00000000000E+00 -0.17563466719E+01  0.17563466719E+01  0.00000000000E+00 0.  1.
         21    1    1    2  503  502  0.30847293050E+01 -0.24537890438E+02  0.93362281883E+02  0.96582292893E+02  0.00000000000E+00 0.  1.
         21    1    1    2  504  503 -0.30847293050E+01  0.24537890438E+02  0.10447127963E+04  0.10450054787E+04  0.00000000000E+00 0.  1.
<mgrwt>
<rscale>  2 0.24731025E+02</rscale>
<asrwt>0</asrwt>
<pdfrwt beam="1">  1       21 0.17535809E+00 0.24731025E+02</pdfrwt>
<pdfrwt beam="2">  1       21 0.27020809E-03 0.24731025E+02</pdfrwt>
<totfact> 0.52256982E+06</totfact>
</mgrwt>
</event>
<event>
 4    1  0.4353697E+006  0.2132700E+02  0.7546771E-02  0.1720158E+00
         21   -1    0    0  503  501  0.00000000000E+00  0.00000000000E+00  0.15295269354E+03  0.15295269354E+03  0.00000000000E+00 0. -1.
         21   -1    0    0  501  502 -0.00000000000E+00 -0.00000000000E+00 -0.40326599099E+02  0.40326599099E+02  0.00000000000E+00 0.  1.
         21    1    1    2  503  504  0.47715730062E+01 -0.20786367635E+02  0.14932129848E+03  0.15083663735E+03  0.00000000000E+00 0. -1.
         21    1    1    2  504  502 -0.47715730062E+01  0.20786367635E+02 -0.36695204037E+02  0.42442655286E+02  0.00000000000E+00 0.  1.
<mgrwt>
<rscale>  2 0.21327001E+02</rscale>
<asrwt>0</asrwt>
<pdfrwt beam="1">  1       21 0.23531183E-01 0.21327001E+02</pdfrwt>
<pdfrwt beam="2">  1       21 0.62040922E-02 0.21327001E+02</pdfrwt>
<totfact> 0.27080693E+06</totfact>
</mgrwt>
</event>
<event>
 4    1  0.4353697E+006  0.1014227E+03  0.7546771E-02  0.1277332E+00
         21   -1    0    0  503  501  0.00000000000E+00  0.00000000000E+00  0.23730641607E+03  0.23730641607E+03  0.00000000000E+00 0.  1.
         21   -1    0    0  501  502 -0.00000000000E+00 -0.00000000000E+00 -0.18642619282E+03  0.18642619282E+03  0.00000000000E+00 0.  1.
         21    1    1    2  503  504  0.10125477205E+03 -0.58340317158E+01  0.21104798214E+03  0.23415340176E+03  0.00000000000E+00 0.  1.
         21    1    1    2  504  502 -0.10125477205E+03  0.58340317158E+01 -0.16016775889E+03  0.18957920713E+03  0.00000000000E+00 0.  1.
<mgrwt>
<rscale>  2 0.10142270E+03</rscale>
<asrwt>0</asrwt>
<pdfrwt beam="1">  1       21 0.36508680E-01 0.10142270E+03</pdfrwt>
<pdfrwt beam="2">  1       21 0.28680952E-01 0.10142270E+03</pdfrwt>
<totfact> 0.87509471E+04</totfact>
</mgrwt>
</event>
<event>
 4    1  0.4353697E+006  0.2052558E+02  0.7546771E-02  0.1735074E+00
         21   -1    0    0  502  501  0.00000000000E+00  0.00000000000E+00  0.65007784011E+01  0.65007784011E+01  0.00000000000E+00 0. -1.
         21   -1    0    0  504  502 -0.00000000000E+00 -0.00000000000E+00 -0.66491877626E+02  0.66491877626E+02  0.00000000000E+00 0. -1.
         21    1    1    2  503  501 -0.13948364155E+02 -0.15057970780E+02 -0.24186813827E+02  0.31722252595E+02  0.00000000000E+00 0. -1.
         21    1    1    2  504  503  0.13948364155E+02  0.15057970780E+02 -0.35804285398E+02  0.41270403432E+02  0.00000000000E+00 0. -1.
<mgrwt>
<rscale>  2 0.20525578E+02</rscale>
<asrwt>0</asrwt>
<pdfrwt beam="1">  1       21 0.10001198E-02 0.20525578E+02</pdfrwt>
<pdfrwt beam="2">  1       21 0.10229519E-01 0.20525578E+02</pdfrwt>
<totfact> 0.18552491E+08</totfact>
</mgrwt>
</event>
<event>
 4    1  0.4353697E+006  0.3500139E+02  0.7546771E-02  0.1548588E+00
         21   -1    0    0  503  501  0.00000000000E+00  0.00000000000E+00  0.98436795166E+02  0.98436795166E+02  0.00000000000E+00 0.  1.
         21   -1    0    0  504  502 -0.00000000000E+00 -0.00000000000E+00 -0.12951544697E+02  0.12951544697E+02  0.00000000000E+00 0.  1.
         21    1    1    2  503  502  0.26415085501E+02 -0.22963890745E+02  0.53751303236E+02  0.64142806454E+02  0.00000000000E+00 0.  1.
         21    1    1    2  504  501 -0.26415085501E+02  0.22963890745E+02  0.31733947232E+02  0.47245533409E+02  0.00000000000E+00 0.  1.
<mgrwt>
<rscale>  2 0.35001386E+02</rscale>
<asrwt>0</asrwt>
<pdfrwt beam="1">  1       21 0.15144122E-01 0.35001386E+02</pdfrwt>
<pdfrwt beam="2">  1       21 0.19925454E-02 0.35001386E+02</pdfrwt>
<totfact> 0.38250164E+07</totfact>
</mgrwt>
</event>
<event>
 4    1  0.4353697E+006  0.2059330E+02  0.7546771E-02  0.1733781E+00
         21   -1    0    0  503  501  0.00000000000E+00  0.00000000000E+00  0.11240840790E+02  0.11240840790E+02  0.00000000000E+00 0. -1.
         21   -1    0    0  504  502 -0.00000000000E+00 -0.00000000000E+00 -0.38599416516E+02  0.38599416516E+02  0.00000000000E+00 0. -1.
         21    1    1    2  503  502 -0.95762632067E+01 -0.18231269330E+02 -0.99329738111E+01  0.22863682274E+02  0.00000000000E+00 0. -1.
         21    1    1    2  504  501  0.95762632067E+01  0.18231269330E+02 -0.17425601914E+02  0.26976575032E+02  0.00000000000E+00 0. -1.
<mgrwt>
<rscale>  2 0.20593300E+02</rscale>
<asrwt>0</asrwt>
<pdfrwt beam="1">  1       21 0.17293601E-02 0.20593300E+02</pdfrwt>
<pdfrwt beam="2">  1       21 0.59383717E-02 0.20593300E+02</pdfrwt>
<totfact> 0.19651297E+08</totfact>
</mgrwt>
</event>
<event>
 4    1  0.4353697E+006  0.2298644E+02  0.7546771E-02  0.1691730E+00
         21   -1    0    0  504  501  0.00000000000E+00  0.00000000000E+00  0.65746444744E+02  0.65746444744E+02  0.00000000000E+00 0.  1.
         21   -1    0    0  501  502 -0.00000000000E+00 -0.00000000000E+00 -0.14568047605E+03  0.14568047605E+03  0.00000000000E+00 0.  1.
         21    1    1    2  503  502 -0.18709512906E+02 -0.13354044856E+02 -0.14272322997E+03  0.14456243205E+03  0.00000000000E+00 0.  1.
         21    1    1    2  504  503  0.18709512906E+02  0.13354044856E+02  0.62789198659E+02  0.66864488748E+02  0.00000000000E+00 0.  1.
<mgrwt>
<rscale>  2 0.22986439E+02</rscale>
<asrwt>0</asrwt>
<pdfrwt beam="1">  1       21 0.10114838E-01 0.22986439E+02</pdfrwt>
<pdfrwt beam="2">  1       21 0.22412381E-01 0.22986439E+02</pdfrwt>
<totfact> 0.13438328E+06</totfact>
</mgrwt>
</event>
<event>
 4    1  0.4353697E+006  0.2015743E+02  0.7546771E-02  0.1742215E+00
         21   -1    0    0  504  501  0.00000000000E+00  0.00000000000E+00  0.14311694041E+03  0.14311694041E+03  0.00000000000E+00 0. -1.
         21   -1    0    0  503  502 -0.00000000000E+00 -0.00000000000E+00 -0.31437264090E+01  0.31437264090E+01  0.00000000000E+00 0. -1.
         21    1    1    2  503  501  0.20109247936E+02  0.13929149734E+01  0.47221738946E+02  0.51344081390E+02  0.00000000000E+00 0. -1.
         21    1    1    2  504  502 -0.20109247936E+02 -0.13929149734E+01  0.92751475055E+02  0.94916585429E+02  0.00000000000E+00 0. -1.
<mgrwt>
<rscale>  2 0.20157432E+02</rscale>
<asrwt>0</asrwt>
<pdfrwt beam="1">  1       21 0.22017986E-01 0.20157432E+02</pdfrwt>
<pdfrwt beam="2">  1       21 0.48365033E-03 0.20157432E+02</pdfrwt>
<totfact> 0.14748366E+08</totfact>
</mgrwt>
</event>
<event>
 4    1  0.4353697E+006  0.2217371E+02  0.7546771E-02  0.1705265E+00
         21   -1    0    0  503  501  0.00000000000E+00  0.00000000000E+00  0.85461862199E+02  0.85461862199E+02  0.00000000000E+00 0.  1.
         21   -1    0    0  504  502 -0.00000000000E+00 -0.00000000000E+00 -0.57860739858E+01  0.57860739858E+01  0.00000000000E+00 0.  1.
         21    1    1    2  503  502  0.12783862772E+02 -0.18117562540E+02  0.36395283815E+02  0.42617952834E+02  0.00000000000E+00 0.  1.
         21    1    1    2  504  501 -0.12783862772E+02  0.18117562540E+02  0.43280504398E+02  0.48629983351E+02  0.00000000000E+00 0.  1.
<mgrwt>
<rscale>  2 0.22173706E+02</rscale>
<asrwt>0</asrwt>
<pdfrwt beam="1">  1       21 0.13147978E-01 0.22173706E+02</pdfrwt>
<pdfrwt beam="2">  1       21 0.89016529E-03 0.22173706E+02</pdfrwt>
<totfact> 0.14887139E+08</totfact>
</mgrwt>
</event>
<event>
 4    1  0.4353697E+006  0.2096612E+02  0.7546771E-02  0.1726771E+00
         21   -1    0    0  503  501  0.00000000000E+00  0.00000000000E+00  0.67736981805E+02  0.67736981805E+02  0.00000000000E+00 0.  1.
         21   -1    0    0  501  502 -0.00000000000E+00 -0.00000000000E+00 -0.13858776760E+03  0.13858776760E+03  0.00000000000E+00 0.  1.
         21    1    1    2  503  504  0.13620607277E+02  0.15939172834E+02  0.65292693481E+02  0.68576336992E+02  0.00000000000E+00 0.  1.
         21    1    1    2  504  502 -0.13620607277E+02 -0.15939172834E+02 -0.13614347928E+03  0.13774841242E+03  0.00000000000E+00 0.  1.
<mgrwt>
<rscale>  2 0.20966120E+02</rscale>
<asrwt>0</asrwt>
<pdfrwt beam="1">  1       21 0.10421074E-01 0.20966120E+02</pdfrwt>
<pdfrwt beam="2">  1       21 0.21321195E-01 0.20966120E+02</pdfrwt>
<totfact> 0.13820142E+06</totfact>
</mgrwt>
</event>
<event>
 4    1  0.4353697E+006  0.2128128E+02  0.7546771E-02  0.1720987E+00
         21   -1    0    0  503  501  0.00000000000E+00  0.00000000000E+00  0.45833127078E+03  0.45833127078E+03  0.00000000000E+00 0.  1.
         21   -1    0    0  504  502 -0.00000000000E+00 -0.00000000000E+00 -0.12214007922E+02  0.12214007922E+02  0.00000000000E+00 0.  1.
         21    1    1    2  503  502  0.10127837186E+02  0.18716831028E+02  0.44861360102E+03  0.44911808678E+03  0.00000000000E+00 0.  1.
         21    1    1    2  504  501 -0.10127837186E+02 -0.18716831028E+02 -0.24963381582E+01  0.21427191930E+02  0.00000000000E+00 0.  1.
<mgrwt>
<rscale>  2 0.21281279E+02</rscale>
<asrwt>0</asrwt>
<pdfrwt beam="1">  1       21 0.70512490E-01 0.21281279E+02</pdfrwt>
<pdfrwt beam="2">  1       21 0.18790785E-02 0.21281279E+02</pdfrwt>
<totfact> 0.21976169E+06</totfact>
</mgrwt>
</event>
<event>
 4    1  0.4353697E+006  0.2002539E+02  0.7546771E-02  0.1744824E+00
         21   -1    0    0  503  501  0.00000000000E+00  0.00000000000E+00  0.22864830195E+03  0.22864830195E+03  0.00000000000E+00 0.  1.
         21   -1    0    0  501  502 -0.00000000000E+00 -0.00000000000E+00 -0.38694799166E+01  0.38694799166E+01  0.00000000000E+00 0. -1.
         21    1    1    2  503  504 -0.41410866033E+01 -0.19592536100E+02  0.19835391631E+03  0.19936221354E+03  0.00000000000E+00 0.  1.
         21    1    1    2  504  502  0.41410866033E+01  0.19592536100E+02  0.26424905724E+02  0.33155568335E+02  0.00000000000E+00 0. -1.
<mgrwt>
<rscale>  2 0.20025386E+02</rscale>
<asrwt>0</asrwt>
<pdfrwt beam="1">  1       21 0.35176651E-01 0.20025386E+02</pdfrwt>
<pdfrwt beam="2">  1       21 0.59530478E-03 0.20025386E+02</pdfrwt>
<totfact> 0.46798962E+07</totfact>
</mgrwt>
</event>
<event>
 4    1  0.4353697E+006  0.5237915E+02  0.7546771E-02  0.1432916E+00
         21   -1    0    0  502  501  0.00000000000E+00  0.00000000000E+00  0.63927129363E+03  0.63927129363E+03  0.00000000000E+00 0.  1.
         21   -1    0    0  504  502 -0.00000000000E+00 -0.00000000000E+00 -0.46874880806E+01  0.46874880806E+01  0.00000000000E+00 0.  1.
         21    1    1    2  503  501 -0.87698522173E+01 -0.51639760464E+02  0.41084902342E+03  0.41417447437E+03  0.00000000000E+00 0.  1.
         21    1    1    2  504  503  0.87698522173E+01  0.51639760464E+02  0.22373478213E+03  0.22978430734E+03  0.00000000000E+00 0.  1.
<mgrwt>
<rscale>  2 0.52379148E+02</rscale>
<asrwt>0</asrwt>
<pdfrwt beam="1">  1       21 0.98349361E-01 0.52379148E+02</pdfrwt>
<pdfrwt beam="2">  1       21 0.72115252E-03 0.52379148E+02</pdfrwt>
<totfact> 0.50753087E+06</totfact>
</mgrwt>
</event>
<event>
 4    1  0.4353697E+006  0.2099223E+02  0.7546771E-02  0.1726287E+00
         21   -1    0    0  503  501  0.00000000000E+00  0.00000000000E+00  0.26930564456E+02  0.26930564456E+02  0.00000000000E+00 0.  1.
         21   -1    0    0  504  502 -0.00000000000E+00 -0.00000000000E+00 -0.21745129723E+02  0.21745129723E+02  0.00000000000E+00 0.  1.
         21    1    1    2  503  502  0.20740246612E+02  0.32427924498E+01  0.14700516117E+02  0.25627694132E+02  0.00000000000E+00 0.  1.
         21    1    1    2  504  501 -0.20740246612E+02 -0.32427924498E+01 -0.95150813846E+01  0.23048000047E+02  0.00000000000E+00 0.  1.
<mgrwt>
<rscale>  2 0.20992226E+02</rscale>
<asrwt>0</asrwt>
<pdfrwt beam="1">  1       21 0.41431638E-02 0.20992226E+02</pdfrwt>
<pdfrwt beam="2">  1       21 0.33454046E-02 0.20992226E+02</pdfrwt>
<totfact> 0.12671904E+08</totfact>
</mgrwt>
</event>
<event>
 4    1  0.4353697E+006  0.2410684E+02  0.7546771E-02  0.1674172E+00
         21   -1    0    0  503  501  0.00000000000E+00  0.00000000000E+00  0.12350004511E+04  0.12350004511E+04  0.00000000000E+00 0.  1.
         21   -1    0    0  501  502 -0.00000000000E+00 -0.00000000000E+00 -0.56657357583E+01  0.56657357583E+01  0.00000000000E+00 0.  1.
         21    1    1    2  503  504 -0.42308323039E+01 -0.23732669510E+02  0.12086817830E+04  0.12089221613E+04  0.00000000000E+00 0.  1.
         21    1    1    2  504  502  0.42308323039E+01  0.23732669510E+02  0.20652932350E+02  0.31744025560E+02  0.00000000000E+00 0.  1.
<mgrwt>
<rscale>  2 0.24106836E+02</rscale>
<asrwt>0</asrwt>
<pdfrwt beam="1">  1       21 0.18999986E+00 0.24106836E+02</pdfrwt>
<pdfrwt beam="2">  1       21 0.87165264E-03 0.24106836E+02</pdfrwt>
<totfact> 0.75605423E+05</totfact>
</mgrwt>
</event>
<event>
 4    1  0.4353697E+006  0.2403044E+02  0.7546771E-02  0.1675332E+00
         21   -1    0    0  503  501  0.00000000000E+00  0.00000000000E+00  0.15874667346E+04  0.15874667346E+04  0.00000000000E+00 0. -1.
         21   -1    0    0  504  502 -0.00000000000E+00 -0.00000000000E+00 -0.40970432770E+01  0.40970432770E+01  0.00000000000E+00 0. -1.
         21    1    1    2  503  502 -0.15485915348E+01  0.23980485389E+02  0.32051418162E+02  0.40059396169E+02  0.00000000000E+00 0. -1.
         21    1    1    2  504  501  0.15485915348E+01 -0.23980485389E+02  0.15513182732E+04  0.15515043818E+04  0.00000000000E+00 0. -1.
<mgrwt>
<rscale>  2 0.24030435E+02</rscale>
<asrwt>0</asrwt>
<pdfrwt beam="1">  1       21 0.24422516E+00 0.24030435E+02</pdfrwt>
<pdfrwt beam="2">  1       21 0.63031561E-03 0.24030435E+02</pdfrwt>
<totfact> 0.62759426E+05</totfact>
</mgrwt>
</event>
<event>
 4    1  0.4353697E+006  0.3070125E+02  0.7546771E-02  0.1590464E+00
         21   -1    0    0  503  501  0.00000000000E+00  0.00000000000E+00  0.40774057340E+02  0.40774057340E+02  0.00000000000E+00 0.  1.
         21   -1    0    0  504  502 -0.00000000000E+00 -0.00000000000E+00 -0.26517940726E+03  0.26517940726E+03  0.00000000000E+00 0.  1.
         21    1    1    2  503  502  0.13277508801E+02 -0.27681667225E+02 -0.25835957017E+03  0.26017731346E+03  0.00000000000E+00 0.  1.
         21    1    1    2  504  501 -0.13277508801E+02  0.27681667225E+02  0.33954220251E+02  0.45776151140E+02  0.00000000000E+00 0.  1.
<mgrwt>
<rscale>  2 0.30701253E+02</rscale>
<asrwt>0</asrwt>
<pdfrwt beam="1">  1       21 0.62729320E-02 0.30701253E+02</pdfrwt>
<pdfrwt beam="2">  1       21 0.40796831E-01 0.30701253E+02</pdfrwt>
<totfact> 0.10072001E+06</totfact>
</mgrwt>
</event>
<event>
 4    1  0.4353697E+006  0.2452917E+02  0.7546771E-02  0.1667858E+00
         21   -1    0    0  504  501  0.00000000000E+00  0.00000000000E+00  0.70361986462E+02  0.70361986462E+02  0.00000000000E+00 0. -1.
         21   -1    0    0  503  502 -0.00000000000E+00 -0.00000000000E+00 -0.87061708874E+01  0.87061708874E+01  0.00000000000E+00 0. -1.
         21    1    1    2  503  501 -0.23128831241E+02  0.81692856295E+01  0.36102273876E+02  0.43646927054E+02  0.00000000000E+00 0. -1.
         21    1    1    2  504  502  0.23128831241E+02 -0.81692856295E+01  0.25553541699E+02  0.35421230295E+02  0.00000000000E+00 0. -1.
<mgrwt>
<rscale>  2 0.24529168E+02</rscale>
<asrwt>0</asrwt>
<pdfrwt beam="1">  1       21 0.10824921E-01 0.24529168E+02</pdfrwt>
<pdfrwt beam="2">  1       21 0.13394109E-02 0.24529168E+02</pdfrwt>
<totfact> 0.11472844E+08</totfact>
</mgrwt>
</event>
<event>
 4    1  0.4353697E+006  0.2021838E+02  0.7546771E-02  0.1741020E+00
         21   -1    0    0  503  501  0.00000000000E+00  0.00000000000E+00  0.11965081253E+03  0.11965081253E+03  0.00000000000E+00 0.  1.
         21   -1    0    0  504  502 -0.00000000000E+00 -0.00000000000E+00 -0.28836962853E+02  0.28836962853E+02  0.00000000000E+00 0.  1.
         21    1    1    2  503  502 -0.20180373077E+02  0.12391321736E+01  0.11511417733E+03  0.11687624536E+03  0.00000000000E+00 0.  1.
         21    1    1    2  504  501  0.20180373077E+02 -0.12391321736E+01 -0.24300327658E+02  0.31611530023E+02  0.00000000000E+00 0.  1.
<mgrwt>
<rscale>  2 0.20218380E+02</rscale>
<asrwt>0</asrwt>
<pdfrwt beam="1">  1       21 0.18407817E-01 0.20218380E+02</pdfrwt>
<pdfrwt beam="2">  1       21 0.44364559E-02 0.20218380E+02</pdfrwt>
<totfact> 0.70193939E+06</totfact>
</mgrwt>
</event>
<event>
 4    1  0.4353697E+006  0.2175796E+02  0.7546771E-02  0.1712472E+00
         21   -1    0    0  503  501  0.00000000000E+00  0.00000000000E+00  0.66153606160E+01  0.66153606160E+01  0.00000000000E+00 0. -1.
         21   -1    0    0  504  502 -0.00000000000E+00 -0.00000000000E+00 -0.80238676120E+02  0.80238676120E+02  0.00000000000E+00 0. -1.
         21    1    1    2  503  502  0.21753835784E+02  0.42345276684E+00 -0.51092173532E+02  0.55532142762E+02  0.00000000000E+00 0. -1.
         21    1    1    2  504  501 -0.21753835784E+02 -0.42345276684E+00 -0.22531141972E+02  0.31321893974E+02  0.00000000000E+00 0. -1.
<mgrwt>
<rscale>  2 0.21757957E+02</rscale>
<asrwt>0</asrwt>
<pdfrwt beam="1">  1       21 0.10177478E-02 0.21757957E+02</pdfrwt>
<pdfrwt beam="2">  1       21 0.12344411E-01 0.21757957E+02</pdfrwt>
<totfact> 0.13465572E+08</totfact>
</mgrwt>
</event>
<event>
 4    1  0.4353697E+006  0.3444046E+02  0.7546771E-02  0.1553626E+00
         21   -1    0    0  504  501  0.00000000000E+00  0.00000000000E+00  0.49272612023E+02  0.49272612023E+02  0.00000000000E+00 0. -1.
         21   -1    0    0  503  502 -0.00000000000E+00 -0.00000000000E+00 -0.43843448091E+02  0.43843448091E+02  0.00000000000E+00 0. -1.
         21    1    1    2  503  501 -0.12780519706E+02  0.31981303980E+02  0.33978916322E+02  0.48380907832E+02  0.00000000000E+00 0. -1.
         21    1    1    2  504  502  0.12780519706E+02 -0.31981303980E+02 -0.28549752390E+02  0.44735152282E+02  0.00000000000E+00 0. -1.
<mgrwt>
<rscale>  2 0.34440463E+02</rscale>
<asrwt>0</asrwt>
<pdfrwt beam="1">  1       21 0.75804019E-02 0.34440463E+02</pdfrwt>
<pdfrwt beam="2">  1       21 0.67451458E-02 0.34440463E+02</pdfrwt>
<totfact> 0.17548991E+07</totfact>
</mgrwt>
</event>
<event>
 4    1  0.4353697E+006  0.2512511E+02  0.7546771E-02  0.1659211E+00
         21   -1    0    0  502  501  0.00000000000E+00  0.00000000000E+00  0.18846228642E+03  0.18846228642E+03  0.00000000000E+00 0.  1.
         21   -1    0    0  503  502 -0.00000000000E+00 -0.00000000000E+00 -0.40614847453E+01  0.40614847453E+01  0.00000000000E+00 0. -1.
         21    1    1    2  503  504 -0.19454275407E+02 -0.15899752351E+02  0.51898962464E+02  0.57660846865E+02  0.00000000000E+00 0. -1.
         21    1    1    2  504  501  0.19454275407E+02  0.15899752351E+02  0.13250183921E+03  0.13486292430E+03  0.00000000000E+00 0.  1.
<mgrwt>
<rscale>  2 0.25125106E+02</rscale>
<asrwt>0</asrwt>
<pdfrwt beam="1">  1       21 0.28994191E-01 0.25125106E+02</pdfrwt>
<pdfrwt beam="2">  1       21 0.62484395E-03 0.25125106E+02</pdfrwt>
<totfact> 0.65656518E+07</totfact>
</mgrwt>
</event>
<event>
 4    1  0.4353697E+006  0.2004130E+02  0.7546771E-02  0.1744508E+00
         21   -1    0    0  504  501  0.00000000000E+00  0.00000000000E+00  0.18181048383E+03  0.18181048383E+03  0.00000000000E+00 0. -1.
         21   -1    0    0  503  502 -0.00000000000E+00 -0.00000000000E+00 -0.34664271680E+01  0.34664271680E+01  0.00000000000E+00 0. -1.
         21    1    1    2  503  501  0.40503526848E+01  0.19627746954E+02  0.33381694217E+02  0.38935733153E+02  0.00000000000E+00 0. -1.
         21    1    1    2  504  502 -0.40503526848E+01 -0.19627746954E+02  0.14496236245E+03  0.14634117785E+03  0.00000000000E+00 0. -1.
<mgrwt>
<rscale>  2 0.20041303E+02</rscale>
<asrwt>0</asrwt>
<pdfrwt beam="1">  1       21 0.27970836E-01 0.20041303E+02</pdfrwt>
<pdfrwt beam="2">  1       21 0.53329663E-03 0.20041303E+02</pdfrwt>
<totfact> 0.83478740E+07</totfact>
</mgrwt>
</event>
<event>
 4    1  0.4353697E+006  0.2033156E+02  0.7546771E-02  0.1738814E+00
         21   -1    0    0  503  501  0.00000000000E+00  0.00000000000E+00  0.10202341483E+02  0.10202341483E+02  0.00000000000E+00 0.  1.
         21   -1    0    0  504  502 -0.00000000000E+00 -0.00000000000E+00 -0.57764156199E+02  0.57764156199E+02  0.00000000000E+00 0.  1.
         21    1    1    2  503  502  0.12199439151E+02 -0.16264871121E+02 -0.42349944893E+02  0.46977549751E+02  0.00000000000E+00 0.  1.
         21    1    1    2  504  501 -0.12199439151E+02  0.16264871121E+02 -0.52118698234E+01  0.20988947931E+02  0.00000000000E+00 0.  1.
<mgrwt>
<rscale>  2 0.20331560E+02</rscale>
<asrwt>0</asrwt>
<pdfrwt beam="1">  1       21 0.15695910E-02 0.20331560E+02</pdfrwt>
<pdfrwt beam="2">  1       21 0.88867933E-02 0.20331560E+02</pdfrwt>
<totfact> 0.11824568E+08</totfact>
</mgrwt>
</event>
<event>
 4    1  0.4353697E+006  0.2183994E+02  0.7546771E-02  0.1711035E+00
         21   -1    0    0  502  501  0.00000000000E+00  0.00000000000E+00  0.13183309831E+02  0.13183309831E+02  0.00000000000E+00 0.  1.
         21   -1    0    0  503  502 -0.00000000000E+00 -0.00000000000E+00 -0.11628044992E+03  0.11628044992E+03  0.00000000000E+00 0.  1.
         21    1    1    2  503  504  0.21092903405E+02 -0.56632430830E+01 -0.10527402918E+03  0.10751559940E+03  0.00000000000E+00 0.  1.
         21    1    1    2  504  501 -0.21092903405E+02  0.56632430830E+01  0.21768890927E+01  0.21948160342E+02  0.00000000000E+00 0.  1.
<mgrwt>
<rscale>  2 0.21839938E+02</rscale>
<asrwt>0</asrwt>
<pdfrwt beam="1">  1       21 0.20282015E-02 0.21839938E+02</pdfrwt>
<pdfrwt beam="2">  1       21 0.17889300E-01 0.21839938E+02</pdfrwt>
<totfact> 0.25252504E+07</totfact>
</mgrwt>
</event>
<event>
 4    1  0.4353697E+006  0.2898560E+02  0.7546771E-02  0.1609580E+00
         21   -1    0    0  503  501  0.00000000000E+00  0.00000000000E+00  0.43540887778E+03  0.43540887778E+03  0.00000000000E+00 0. -1.
         21   -1    0    0  501  502 -0.00000000000E+00 -0.00000000000E+00 -0.37429207140E+02  0.37429207140E+02  0.00000000000E+00 0. -1.
         21    1    1    2  503  504 -0.23198336827E+02 -0.17378218011E+02  0.42923414682E+03  0.43021171310E+03  0.00000000000E+00 0. -1.
         21    1    1    2  504  502  0.23198336827E+02  0.17378218011E+02 -0.31254476183E+02  0.42626371816E+02  0.00000000000E+00 0. -1.
<mgrwt>
<rscale>  2 0.28985605E+02</rscale>
<asrwt>0</asrwt>
<pdfrwt beam="1">  1       21 0.66985978E-01 0.28985605E+02</pdfrwt>
<pdfrwt beam="2">  1       21 0.57583399E-02 0.28985605E+02</pdfrwt>
<totfact> 0.43216379E+05</totfact>
</mgrwt>
</event>
<event>
 4    1  0.4353697E+006  0.2096112E+02  0.7546771E-02  0.1726864E+00
         21   -1    0    0  502  501  0.00000000000E+00  0.00000000000E+00  0.11185838715E+03  0.11185838715E+03  0.00000000000E+00 0.  1.
         21   -1    0    0  504  502 -0.00000000000E+00 -0.00000000000E+00 -0.64504596827E+02  0.64504596827E+02  0.00000000000E+00 0.  1.
         21    1    1    2  503  501 -0.18123862076E+02  0.10530626757E+02  0.10913138912E+03  0.11112618309E+03  0.00000000000E+00 0.  1.
         21    1    1    2  504  503  0.18123862076E+02 -0.10530626757E+02 -0.61777598800E+02  0.65236800887E+02  0.00000000000E+00 0.  1.
<mgrwt>
<rscale>  2 0.20961118E+02</rscale>
<asrwt>0</asrwt>
<pdfrwt beam="1">  1       21 0.17208983E-01 0.20961118E+02</pdfrwt>
<pdfrwt beam="2">  1       21 0.99237841E-02 0.20961118E+02</pdfrwt>
<totfact> 0.21707917E+06</totfact>
</mgrwt>
</event>
<event>
 4    1  0.4353697E+006  0.2247479E+02  0.7546771E-02  0.1700168E+00
         21   -1    0    0  503  501  0.00000000000E+00  0.00000000000E+00  0.10207475598E+03  0.10207475598E+03  0.00000000000E+00 0.  1.
         21   -1    0    0  504  502 -0.00000000000E+00 -0.00000000000E+00 -0.77560292180E+01  0.77560292180E+01  0.00000000000E+00 0.  1.
         21    1    1    2  503  502  0.37224284258E+01  0.22164382736E+02  0.80199129733E+02  0.83288755216E+02  0.00000000000E+00 0.  1.
         21    1    1    2  504  501 -0.37224284258E+01 -0.22164382736E+02  0.14119597033E+02  0.26542029987E+02  0.00000000000E+00 0.  1.
<mgrwt>
<rscale>  2 0.22474793E+02</rscale>
<asrwt>0</asrwt>
<pdfrwt beam="1">  1       21 0.15703808E-01 0.22474793E+02</pdfrwt>
<pdfrwt beam="2">  1       21 0.11932353E-02 0.22474793E+02</pdfrwt>
<totfact> 0.71223616E+07</totfact>
</mgrwt>
</event>
<event>
 4    1  0.4353697E+006  0.2064422E+02  0.7546771E-02  0.1732812E+00
         21   -1    0    0  504  501  0.00000000000E+00  0.00000000000E+00  0.80285069273E+02  0.80285069273E+02  0.00000000000E+00 0.  1.
         21   -1    0    0  501  502 -0.00000000000E+00 -0.00000000000E+00 -0.87008550954E+01  0.87008550954E+01  0.00000000000E+00 0.  1.
         21    1    1    2  503  502 -0.19582307845E+02 -0.65358187698E+01  0.80097783710E+01  0.22143627911E+02  0.00000000000E+00 0.  1.
         21    1    1    2  504  503  0.19582307845E+02  0.65358187698E+01  0.63574435807E+02  0.66842296457E+02  0.00000000000E+00 0.  1.
<mgrwt>
<rscale>  2 0.20644217E+02</rscale>
<asrwt>0</asrwt>
<pdfrwt beam="1">  1       21 0.12351549E-01 0.20644217E+02</pdfrwt>
<pdfrwt beam="2">  1       21 0.13385931E-02 0.20644217E+02</pdfrwt>
<totfact> 0.87732711E+07</totfact>
</mgrwt>
</event>
<event>
 4    1  0.4353697E+006  0.2189458E+02  0.7546771E-02  0.1710082E+00
         21   -1    0    0  503  501  0.00000000000E+00  0.00000000000E+00  0.26717881814E+03  0.26717881814E+03  0.00000000000E+00 0.  1.
         21   -1    0    0  504  502 -0.00000000000E+00 -0.00000000000E+00 -0.20757476407E+01  0.20757476407E+01  0.00000000000E+00 0.  1.
         21    1    1    2  503  502  0.21054763753E+02  0.60057781076E+01  0.82969866578E+02  0.85810088027E+02  0.00000000000E+00 0.  1.
         21    1    1    2  504  501 -0.21054763753E+02 -0.60057781076E+01  0.18213320392E+03  0.18344447776E+03  0.00000000000E+00 0.  1.
<mgrwt>
<rscale>  2 0.21894576E+02</rscale>
<asrwt>0</asrwt>
<pdfrwt beam="1">  1       21 0.41104406E-01 0.21894576E+02</pdfrwt>
<pdfrwt beam="2">  1       21 0.31934600E-03 0.21894576E+02</pdfrwt>
<totfact> 0.89236080E+07</totfact>
</mgrwt>
</event>
<event>
 4    1  0.4353697E+006  0.3183665E+02  0.7546771E-02  0.1578631E+00
         21   -1    0    0  504  501  0.00000000000E+00  0.00000000000E+00  0.42018654212E+02  0.42018654212E+02  0.00000000000E+00 0.  1.
         21   -1    0    0  501  502 -0.00000000000E+00 -0.00000000000E+00 -0.19782161635E+03  0.19782161635E+03  0.00000000000E+00 0. -1.
         21    1    1    2  503  502  0.27255926299E+02  0.16452567944E+02 -0.19027260120E+03  0.19291769042E+03  0.00000000000E+00 0. -1.
         21    1    1    2  504  503 -0.27255926299E+02 -0.16452567944E+02  0.34469639060E+02  0.46922580143E+02  0.00000000000E+00 0.  1.
<mgrwt>
<rscale>  2 0.31836654E+02</rscale>
<asrwt>0</asrwt>
<pdfrwt beam="1">  1       21 0.64644083E-02 0.31836654E+02</pdfrwt>
<pdfrwt beam="2">  1       21 0.30434095E-01 0.31836654E+02</pdfrwt>
<totfact> 0.16674596E+06</totfact>
</mgrwt>
</event>
<event>
 4    1  0.4353697E+006  0.2661191E+02  0.7546771E-02  0.1638873E+00
         21   -1    0    0  503  501  0.00000000000E+00  0.00000000000E+00  0.13383182658E+04  0.13383182658E+04  0.00000000000E+00 0. -1.
         21   -1    0    0  501  502 -0.00000000000E+00 -0.00000000000E+00 -0.10927089921E+01  0.10927089921E+01  0.00000000000E+00 0. -1.
         21    1    1    2  503  504  0.25357162325E+02 -0.80751601527E+01  0.11495570225E+04  0.11498650103E+04  0.00000000000E+00 0. -1.
         21    1    1    2  504  502 -0.25357162325E+02  0.80751601527E+01  0.18766853431E+03  0.18954596451E+03  0.00000000000E+00 0. -1.
<mgrwt>
<rscale>  2 0.26611913E+02</rscale>
<asrwt>0</asrwt>
<pdfrwt beam="1">  1       21 0.20589381E+00 0.26611913E+02</pdfrwt>
<pdfrwt beam="2">  1       21 0.16811015E-03 0.26611913E+02</pdfrwt>
<totfact> 0.69520886E+06</totfact>
</mgrwt>
</event>
<event>
 4    1  0.4353697E+006  0.2232707E+02  0.7546771E-02  0.1702656E+00
         21   -1    0    0  503  501  0.00000000000E+00  0.00000000000E+00  0.65285118463E+01  0.65285118463E+01  0.00000000000E+00 0.  1.
         21   -1    0    0  504  502 -0.00000000000E+00 -0.00000000000E+00 -0.66235455630E+03  0.66235455630E+03  0.00000000000E+00 0. -1.
         21    1    1    2  503  502  0.14580621245E+02  0.16908685647E+02 -0.13339031471E+02  0.26008228059E+02  0.00000000000E+00 0.  1.
         21    1    1    2  504  501 -0.14580621245E+02 -0.16908685647E+02 -0.64248701299E+03  0.64287484009E+03  0.00000000000E+00 0. -1.
<mgrwt>
<rscale>  2 0.22327072E+02</rscale>
<asrwt>0</asrwt>
<pdfrwt beam="1">  1       21 0.10043860E-02 0.22327072E+02</pdfrwt>
<pdfrwt beam="2">  1       21 0.10190075E+00 0.22327072E+02</pdfrwt>
<totfact> 0.26175396E+06</totfact>
</mgrwt>
</event>
<event>
 4    1  0.4353697E+006  0.2779869E+02  0.7546771E-02  0.1623779E+00
         21   -1    0    0  504  501  0.00000000000E+00  0.00000000000E+00  0.88929633712E+02  0.88929633712E+02  0.00000000000E+00 0. -1.
         21   -1    0    0  503  502 -0.00000000000E+00 -0.00000000000E+00 -0.62692687445E+02  0.62692687445E+02  0.00000000000E+00 0. -1.
         21    1    1    2  503  501 -0.26301592834E+02 -0.89996253754E+01 -0.57242819804E+02  0.63635740442E+02  0.00000000000E+00 0. -1.
         21    1    1    2  504  502  0.26301592834E+02  0.89996253754E+01  0.83479766071E+02  0.87986580714E+02  0.00000000000E+00 0. -1.
<mgrwt>
<rscale>  2 0.27798688E+02</rscale>
<asrwt>0</asrwt>
<pdfrwt beam="1">  1       21 0.13681482E-01 0.27798688E+02</pdfrwt>
<pdfrwt beam="2">  1       21 0.96450288E-02 0.27798688E+02</pdfrwt>
<totfact> 0.34974581E+06</totfact>
</mgrwt>
</event>
<event>
 4    1  0.4353697E+006  0.2006771E+02  0.7546771E-02  0.1743985E+00
         21   -1    0    0  504  501  0.00000000000E+00  0.00000000000E+00  0.31384904345E+03  0.31384904345E+03  0.00000000000E+00 0.  1.
         21   -1    0    0  503  502 -0.00000000000E+00 -0.00000000000E+00 -0.13271432589E+01  0.13271432589E+01  0.00000000000E+00 0.  1.
         21    1    1    2  503  501 -0.18239080340E+02 -0.83695277143E+01  0.18495518097E+03  0.18604067300E+03  0.00000000000E+00 0.  1.
         21    1    1    2  504  502  0.18239080340E+02  0.83695277143E+01  0.12756671922E+03  0.12913551370E+03  0.00000000000E+00 0.  1.
<mgrwt>
<rscale>  2 0.20067712E+02</rscale>
<asrwt>0</asrwt>
<pdfrwt beam="1">  1       21 0.48284409E-01 0.20067712E+02</pdfrwt>
<pdfrwt beam="2">  1       21 0.20417614E-03 0.20067712E+02</pdfrwt>
<totfact> 0.12251366E+08</totfact>
</mgrwt>
</event>
<event>
 4    1  0.4353697E+006  0.2027030E+02  0.7546771E-02  0.1740006E+00
         21   -1    0    0  504  501  0.00000000000E+00  0.00000000000E+00  0.66169084684E+01  0.66169084684E+01  0.00000000000E+00 0. -1.
         21   -1    0    0  503  502 -0.00000000000E+00 -0.00000000000E+00 -0.62259638101E+02  0.62259638101E+02  0.00000000000E+00 0.  1.
         21    1    1    2  503  501  0.81511046486E+01 -0.18559221884E+02 -0.29585549213E+02  0.35863490434E+02  0.00000000000E+00 0.  1.
         21    1    1    2  504  502 -0.81511046486E+01  0.18559221884E+02 -0.26057180420E+02  0.33013056135E+02  0.00000000000E+00 0. -1.
<mgrwt>
<rscale>  2 0.20270304E+02</rscale>
<asrwt>0</asrwt>
<pdfrwt beam="1">  1       21 0.10179859E-02 0.20270304E+02</pdfrwt>
<pdfrwt beam="2">  1       21 0.95784060E-02 0.20270304E+02</pdfrwt>
<totfact> 0.20051803E+08</totfact>
</mgrwt>
</event>
<event>
 4    1  0.4353697E+006  0.2696435E+02  0.7546771E-02  0.1634291E+00
         21   -1    0    0  503  501  0.00000000000E+00  0.00000000000E+00  0.13036785602E+03  0.13036785602E+03  0.00000000000E+00 0. -1.
         21   -1    0    0  504  502 -0.00000000000E+00 -0.00000000000E+00 -0.92161378610E+01  0.92161378610E+01  0.00000000000E+00 0. -1.
         21    1    1    2  503  502  0.26398890801E+02  0.54931776489E+01  0.16720408609E+02  0.31727724473E+02  0.00000000000E+00 0. -1.
         21    1    1    2  504  501 -0.26398890801E+02 -0.54931776489E+01  0.10443130955E+03  0.10785626941E+03  0.00000000000E+00 0. -1.
<mgrwt>
<rscale>  2 0.26964355E+02</rscale>
<asrwt>0</asrwt>
<pdfrwt beam="1">  1       21 0.20056592E-01 0.26964355E+02</pdfrwt>
<pdfrwt beam="2">  1       21 0.14178675E-02 0.26964355E+02</pdfrwt>
<totfact> 0.37516933E+07</totfact>
</mgrwt>
</event>
<event>
 4    1  0.4353697E+006  0.2248420E+02  0.7546771E-02  0.1700010E+00
         21   -1    0    0  502  501  0.00000000000E+00  0.00000000000E+00  0.34904255648E+01  0.34904255648E+01  0.00000000000E+00 0. -1.
         21   -1    0    0  503  502 -0.00000000000E+00 -0.00000000000E+00 -0.15913634230E+03  0.15913634230E+03  0.00000000000E+00 0. -1.
         21    1    1    2  503  504  0.85419243602E+01 -0.20798436730E+02 -0.10219825151E+03  0.10464235306E+03  0.00000000000E+00 0. -1.
         21    1    1    2  504  501 -0.85419243602E+01  0.20798436730E+02 -0.53447665218E+02  0.57984414798E+02  0.00000000000E+00 0. -1.
<mgrwt>
<rscale>  2 0.22484204E+02</rscale>
<asrwt>0</asrwt>
<pdfrwt beam="1">  1       21 0.53698846E-03 0.22484204E+02</pdfrwt>
<pdfrwt beam="2">  1       21 0.24482518E-01 0.22484204E+02</pdfrwt>
<totfact> 0.10821840E+08</totfact>
</mgrwt>
</event>
<event>
 4    1  0.4353697E+006  0.2427297E+02  0.7546771E-02  0.1671669E+00
         21   -1    0    0  504  501  0.00000000000E+00  0.00000000000E+00  0.13245834370E+02  0.13245834370E+02  0.00000000000E+00 0. -1.
         21   -1    0    0  503  502 -0.00000000000E+00 -0.00000000000E+00 -0.63705205004E+02  0.63705205004E+02  0.00000000000E+00 0.  1.
         21    1    1    2  503  501  0.15296496547E+02 -0.18846601710E+02 -0.46366055294E+02  0.52335344521E+02  0.00000000000E+00 0.  1.
         21    1    1    2  504  502 -0.15296496547E+02  0.18846601710E+02 -0.40933153410E+01  0.24615694853E+02  0.00000000000E+00 0. -1.
<mgrwt>
<rscale>  2 0.24272973E+02</rscale>
<asrwt>0</asrwt>
<pdfrwt beam="1">  1       21 0.20378207E-02 0.24272973E+02</pdfrwt>
<pdfrwt beam="2">  1       21 0.98008006E-02 0.24272973E+02</pdfrwt>
<totfact> 0.71065085E+07</totfact>
</mgrwt>
</event>
<event>
 4    1  0.4353697E+006  0.2025253E+02  0.7546771E-02  0.1740352E+00
         21   -1    0    0  502  501  0.00000000000E+00  0.00000000000E+00  0.13743404658E+03  0.13743404658E+03  0.00000000000E+00 0.  1.
         21   -1    0    0  504  502 -0.00000000000E+00 -0.00000000000E+00 -0.76762451594E+01  0.76762451594E+01  0.00000000000E+00 0. -1.
         21    1    1    2  503  501  0.23986235414E+01 -0.20109982320E+02  0.12160245151E+03  0.12327741479E+03  0.00000000000E+00 0.  1.
         21    1    1    2  504  503 -0.23986235414E+01  0.20109982320E+02  0.81553499119E+01  0.21832876952E+02  0.00000000000E+00 0. -1.
<mgrwt>
<rscale>  2 0.20252525E+02</rscale>
<asrwt>0</asrwt>
<pdfrwt beam="1">  1       21 0.21143698E-01 0.20252525E+02</pdfrwt>
<pdfrwt beam="2">  1       21 0.11809609E-02 0.20252525E+02</pdfrwt>
<totfact> 0.42146830E+07</totfact>
</mgrwt>
</event>
<event>
 4    1  0.4353697E+006  0.2385641E+02  0.7546771E-02  0.1677993E+00
         21   -1    0    0  502  501  0.00000000000E+00  0.00000000000E+00  0.29069064854E+02  0.29069064854E+02  0.00000000000E+00 0. -1.
         21   -1    0    0  504  502 -0.00000000000E+00 -0.00000000000E+00 -0.11004711525E+03  0.11004711525E+03  0.00000000000E+00 0.  1.
         21    1    1    2  503  501  0.20636671987E+01 -0.23766986944E+02  0.22578721267E+02  0.32847024900E+02  0.00000000000E+00 0. -1.
         21    1    1    2  504  503 -0.20636671987E+01  0.23766986944E+02 -0.10355677166E+03  0.10626915520E+03  0.00000000000E+00 0.  1.
<mgrwt>
<rscale>  2 0.23856412E+02</rscale>
<asrwt>0</asrwt>
<pdfrwt beam="1">  1       21 0.44721639E-02 0.23856412E+02</pdfrwt>
<pdfrwt beam="2">  1       21 0.16930325E-01 0.23856412E+02</pdfrwt>
<totfact> 0.82524353E+06</totfact>
</mgrwt>
</event>
<event>
 4    1  0.4353697E+006  0.2897727E+02  0.7546771E-02  0.1609677E+00
         21   -1    0    0  503  501  0.00000000000E+00  0.00000000000E+00  0.33116047517E+03  0.33116047517E+03  0.00000000000E+00 0. -1.
         21   -1    0    0  504  502 -0.00000000000E+00 -0.00000000000E+00 -0.39499666397E+01  0.39499666397E+01  0.00000000000E+00 0.  1.
         21    1    1    2  503  502 -0.22760018714E+02  0.17934992954E+02  0.63341030162E+02  0.69654637506E+02  0.00000000000E+00 0.  1.
         21    1    1    2  504  501  0.22760018714E+02 -0.17934992954E+02  0.26386947837E+03  0.26545580430E+03  0.00000000000E+00 0. -1.
<mgrwt>
<rscale>  2 0.28977274E+02</rscale>
<asrwt>0</asrwt>
<pdfrwt beam="1">  1       21 0.50947744E-01 0.28977274E+02</pdfrwt>
<pdfrwt beam="2">  1       21 0.60768743E-03 0.28977274E+02</pdfrwt>
<totfact> 0.24316981E+07</totfact>
</mgrwt>
</event>
<event>
 4    1  0.4353697E+006  0.2272987E+02  0.7546771E-02  0.1695927E+00
         21   -1    0    0  504  501  0.00000000000E+00  0.00000000000E+00  0.12267801689E+02  0.12267801689E+02  0.00000000000E+00 0.  1.
         21   -1    0    0  503  502 -0.00000000000E+00 -0.00000000000E+00 -0.51176588644E+02  0.51176588644E+02  0.00000000000E+00 0.  1.
         21    1    1    2  503  501 -0.23219880281E+01  0.22610952202E+02 -0.32803510873E+02  0.39908860088E+02  0.00000000000E+00 0.  1.
         21    1    1    2  504  502  0.23219880281E+01 -0.22610952202E+02 -0.61052760808E+01  0.23535530245E+02  0.00000000000E+00 0.  1.
<mgrwt>
<rscale>  2 0.22729866E+02</rscale>
<asrwt>0</asrwt>
<pdfrwt beam="1">  1       21 0.18873541E-02 0.22729866E+02</pdfrwt>
<pdfrwt beam="2">  1       21 0.78733213E-02 0.22729866E+02</pdfrwt>
<totfact> 0.11244846E+08</totfact>
</mgrwt>
</event>
<event>
 4    1  0.4353697E+006  0.2140682E+02  0.7546771E-02  0.1718717E+00
         21   -1    0    0  502  501  0.00000000000E+00  0.00000000000E+00  0.14445138695E+03  0.14445138695E+03  0.00000000000E+00 0.  1.
         21   -1    0    0  503  502 -0.00000000000E+00 -0.00000000000E+00 -0.14143615529E+02  0.14143615529E+02  0.00000000000E+00 0.  1.
         21    1    1    2  503  504  0.18576868639E+02 -0.10637282951E+02 -0.46866306393E+01  0.21913839092E+02  0.00000000000E+00 0.  1.
         21    1    1    2  504  501 -0.18576868639E+02  0.10637282951E+02  0.13499440206E+03  0.13668116339E+03  0.00000000000E+00 0.  1.
<mgrwt>
<rscale>  2 0.21406818E+02</rscale>
<asrwt>0</asrwt>
<pdfrwt beam="1">  1       21 0.22223289E-01 0.21406818E+02</pdfrwt>
<pdfrwt beam="2">  1       21 0.21759410E-02 0.21406818E+02</pdfrwt>
<totfact> 0.15475280E+07</totfact>
</mgrwt>
</event>
<event>
 4    1  0.4353697E+006  0.2978479E+02  0.7546771E-02  0.1600480E+00
         21   -1    0    0  503  501  0.00000000000E+00  0.00000000000E+00  0.20680417809E+04  0.20680417809E+04  0.00000000000E+00 0. -1.
         21   -1    0    0  501  502 -0.00000000000E+00 -0.00000000000E+00 -0.21395875039E+01  0.21395875039E+01  0.00000000000E+00 0.  1.
         21    1    1    2  503  504  0.22374416896E+02 -0.19660093273E+02  0.19584788926E+04  0.19587053650E+04  0.00000000000E+00 0. -1.
         21    1    1    2  504  502 -0.22374416896E+02  0.19660093273E+02  0.10742330076E+03  0.11147600345E+03  0.00000000000E+00 0.  1.
<mgrwt>
<rscale>  2 0.29784791E+02</rscale>
<asrwt>0</asrwt>
<pdfrwt beam="1">  1       21 0.31815868E+00 0.29784791E+02</pdfrwt>
<pdfrwt beam="2">  1       21 0.32916896E-03 0.29784791E+02</pdfrwt>
<totfact> 0.69848427E+05</totfact>
</mgrwt>
</event>
<event>
 4    1  0.4353697E+006  0.2308608E+02  0.7546771E-02  0.1690119E+00
         21   -1    0    0  503  501  0.00000000000E+00  0.00000000000E+00  0.11103226417E+02  0.11103226417E+02  0.00000000000E+00 0.  1.
         21   -1    0    0  504  502 -0.00000000000E+00 -0.00000000000E+00 -0.57134688908E+02  0.57134688908E+02  0.00000000000E+00 0.  1.
         21    1    1    2  503  502 -0.13905007926E+00  0.23085665480E+02 -0.36657356499E+02  0.43321231181E+02  0.00000000000E+00 0.  1.
         21    1    1    2  504  501  0.13905007926E+00 -0.23085665480E+02 -0.93741059917E+01  0.24916684144E+02  0.00000000000E+00 0.  1.
<mgrwt>
<rscale>  2 0.23086084E+02</rscale>
<asrwt>0</asrwt>
<pdfrwt beam="1">  1       21 0.17081887E-02 0.23086084E+02</pdfrwt>
<pdfrwt beam="2">  1       21 0.87899522E-02 0.23086084E+02</pdfrwt>
<totfact> 0.10988208E+08</totfact>
</mgrwt>
</event>
<event>
 4    1  0.4353697E+006  0.2777022E+02  0.7546771E-02  0.1624130E+00
         21   -1    0    0  503  501  0.00000000000E+00  0.00000000000E+00  0.14431729081E+02  0.14431729081E+02  0.00000000000E+00 0.  1.
         21   -1    0    0  501  502 -0.00000000000E+00 -0.00000000000E+00 -0.61681871530E+02  0.61681871530E+02  0.00000000000E+00 0.  1.
         21    1    1    2  503  504  0.25857763128E+02  0.10127260194E+02 -0.97111061063E+01  0.29419226619E+02  0.00000000000E+00 0.  1.
         21    1    1    2  504  502 -0.25857763128E+02 -0.10127260194E+02 -0.37539036342E+02  0.46694373992E+02  0.00000000000E+00 0.  1.
<mgrwt>
<rscale>  2 0.27770223E+02</rscale>
<asrwt>0</asrwt>
<pdfrwt beam="1">  1       21 0.22202661E-02 0.27770223E+02</pdfrwt>
<pdfrwt beam="2">  1       21 0.94895185E-02 0.27770223E+02</pdfrwt>
<totfact> 0.67913689E+07</totfact>
</mgrwt>
</event>
<event>
 4    1  0.4353697E+006  0.2405033E+02  0.7546771E-02  0.1675029E+00
         21   -1    0    0  504  501  0.00000000000E+00  0.00000000000E+00  0.10828746403E+02  0.10828746403E+02  0.00000000000E+00 0.  1.
         21   -1    0    0  503  502 -0.00000000000E+00 -0.00000000000E+00 -0.12395766684E+03  0.12395766684E+03  0.00000000000E+00 0.  1.
         21    1    1    2  503  501  0.14530923204E+02  0.19164301458E+02 -0.57245043335E+01  0.24722219346E+02  0.00000000000E+00 0.  1.
         21    1    1    2  504  502 -0.14530923204E+02 -0.19164301458E+02 -0.10740441611E+03  0.11006419390E+03  0.00000000000E+00 0.  1.
<mgrwt>
<rscale>  2 0.24050326E+02</rscale>
<asrwt>0</asrwt>
<pdfrwt beam="1">  1       21 0.16659611E-02 0.24050326E+02</pdfrwt>
<pdfrwt beam="2">  1       21 0.19070409E-01 0.24050326E+02</pdfrwt>
<totfact> 0.31236005E+07</totfact>
</mgrwt>
</event>
<event>
 4    1  0.4353697E+006  0.2978291E+02  0.7546771E-02  0.1600501E+00
         21   -1    0    0  503  501  0.00000000000E+00  0.00000000000E+00  0.98255587690E+03  0.98255587690E+03  0.00000000000E+00 0.  1.
         21   -1    0    0  504  502 -0.00000000000E+00 -0.00000000000E+00 -0.17777685882E+01  0.17777685882E+01  0.00000000000E+00 0. -1.
         21    1    1    2  503  502  0.15950461740E+02  0.25151631569E+02  0.83567463210E+03  0.83620518567E+03  0.00000000000E+00 0.  1.
         21    1    1    2  504  501 -0.15950461740E+02 -0.25151631569E+02  0.14510347621E+03  0.14812845982E+03  0.00000000000E+00 0. -1.
<mgrwt>
<rscale>  2 0.29782911E+02</rscale>
<asrwt>0</asrwt>
<pdfrwt beam="1">  1       21 0.15116201E+00 0.29782911E+02</pdfrwt>
<pdfrwt beam="2">  1       21 0.27350365E-03 0.29782911E+02</pdfrwt>
<totfact> 0.75313091E+06</totfact>
</mgrwt>
</event>
<event>
 4    1  0.4353697E+006  0.6443536E+02  0.7546771E-02  0.1380108E+00
         21   -1    0    0  503  501  0.00000000000E+00  0.00000000000E+00  0.23431903529E+02  0.23431903529E+02  0.00000000000E+00 0.  1.
         21   -1    0    0  501  502 -0.00000000000E+00 -0.00000000000E+00 -0.19411858346E+03  0.19411858346E+03  0.00000000000E+00 0.  1.
         21    1    1    2  503  504  0.42999300411E+01 -0.64291728130E+02 -0.53221703343E+02  0.83573114164E+02  0.00000000000E+00 0.  1.
         21    1    1    2  504  502 -0.42999300411E+01  0.64291728130E+02 -0.11746497659E+03  0.13397737283E+03  0.00000000000E+00 0.  1.
<mgrwt>
<rscale>  2 0.64435361E+02</rscale>
<asrwt>0</asrwt>
<pdfrwt beam="1">  1       21 0.36049083E-02 0.64435361E+02</pdfrwt>
<pdfrwt beam="2">  1       21 0.29864397E-01 0.64435361E+02</pdfrwt>
<totfact> 0.47374540E+06</totfact>
</mgrwt>
</event>
<event>
 4    1  0.4353697E+006  0.2205628E+02  0.7546771E-02  0.1707280E+00
         21   -1    0    0  502  501  0.00000000000E+00  0.00000000000E+00  0.26853767596E+03  0.26853767596E+03  0.00000000000E+00 0.  1.
         21   -1    0    0  504  502 -0.00000000000E+00 -0.00000000000E+00 -0.91974427646E+02  0.91974427646E+02  0.00000000000E+00 0.  1.
         21    1    1    2  503  501 -0.20448005668E+02 -0.82679225862E+01  0.26675362781E+03  0.26766392628E+03  0.00000000000E+00 0.  1.
         21    1    1    2  504  503  0.20448005668E+02  0.82679225862E+01 -0.90190379497E+02  0.92848177330E+02  0.00000000000E+00 0.  1.
<mgrwt>
<rscale>  2 0.22056280E+02</rscale>
<asrwt>0</asrwt>
<pdfrwt beam="1">  1       21 0.41313488E-01 0.22056280E+02</pdfrwt>
<pdfrwt beam="2">  1       21 0.14149912E-01 0.22056280E+02</pdfrwt>
<totfact> 0.25070111E+05</totfact>
</mgrwt>
</event>
<event>
 4    1  0.4353697E+006  0.2694078E+02  0.7546771E-02  0.1634595E+00
         21   -1    0    0  504  501  0.00000000000E+00  0.00000000000E+00  0.12997604304E+03  0.12997604304E+03  0.00000000000E+00 0.  1.
         21   -1    0    0  503  502 -0.00000000000E+00 -0.00000000000E+00 -0.55966770086E+01  0.55966770086E+01  0.00000000000E+00 0.  1.
         21    1    1    2  503  501  0.13906347493E+02  0.23074206330E+02  0.65396916225E+02  0.70728792935E+02  0.00000000000E+00 0.  1.
         21    1    1    2  504  502 -0.13906347493E+02 -0.23074206330E+02  0.58982449810E+02  0.64843927116E+02  0.00000000000E+00 0.  1.
<mgrwt>
<rscale>  2 0.26940778E+02</rscale>
<asrwt>0</asrwt>
<pdfrwt beam="1">  1       21 0.19996312E-01 0.26940778E+02</pdfrwt>
<pdfrwt beam="2">  1       21 0.86102733E-03 0.26940778E+02</pdfrwt>
<totfact> 0.80266468E+07</totfact>
</mgrwt>
</event>
<event>
 4    1  0.4353697E+006  0.2188188E+02  0.7546771E-02  0.1710303E+00
         21   -1    0    0  503  501  0.00000000000E+00  0.00000000000E+00  0.73593998994E+03  0.73593998994E+03  0.00000000000E+00 0.  1.
         21   -1    0    0  504  502 -0.00000000000E+00 -0.00000000000E+00 -0.21540770136E+01  0.21540770136E+01  0.00000000000E+00 0.  1.
         21    1    1    2  503  502 -0.14767318341E+02  0.16147543880E+02  0.58576508431E+02  0.62530186345E+02  0.00000000000E+00 0.  1.
         21    1    1    2  504  501  0.14767318341E+02 -0.16147543880E+02  0.67520940449E+03  0.67556388061E+03  0.00000000000E+00 0.  1.
<mgrwt>
<rscale>  2 0.21881884E+02</rscale>
<asrwt>0</asrwt>
<pdfrwt beam="1">  1       21 0.11322134E+00 0.21881884E+02</pdfrwt>
<pdfrwt beam="2">  1       21 0.33139705E-03 0.21881884E+02</pdfrwt>
<totfact> 0.10649031E+07</totfact>
</mgrwt>
</event>
<event>
 4    1  0.4353697E+006  0.2929930E+02  0.7546771E-02  0.1605966E+00
         21   -1    0    0  504  501  0.00000000000E+00  0.00000000000E+00  0.98880138030E+01  0.98880138030E+01  0.00000000000E+00 0.  1.
         21   -1    0    0  503  502 -0.00000000000E+00 -0.00000000000E+00 -0.91817733513E+02  0.91817733513E+02  0.00000000000E+00 0.  1.
         21    1    1    2  503  501 -0.29024716138E+02  0.40018384252E+01 -0.52832488893E+02  0.60412918654E+02  0.00000000000E+00 0.  1.
         21    1    1    2  504  502  0.29024716138E+02 -0.40018384252E+01 -0.29097230817E+02  0.41292828662E+02  0.00000000000E+00 0.  1.
<mgrwt>
<rscale>  2 0.29299298E+02</rscale>
<asrwt>0</asrwt>
<pdfrwt beam="1">  1       21 0.15212329E-02 0.29299298E+02</pdfrwt>
<pdfrwt beam="2">  1       21 0.14125805E-01 0.29299298E+02</pdfrwt>
<totfact> 0.63033249E+07</totfact>
</mgrwt>
</event>
<event>
 4    1  0.4353697E+006  0.2024316E+02  0.7546771E-02  0.1740535E+00
         21   -1    0    0  504  501  0.00000000000E+00  0.00000000000E+00  0.65966759649E+01  0.65966759649E+01  0.00000000000E+00 0. -1.
         21   -1    0    0  503  502 -0.00000000000E+00 -0.00000000000E+00 -0.28498436528E+03  0.28498436528E+03  0.00000000000E+00 0. -1.
         21    1    1    2  503  501  0.38784063329E+01 -0.19868155592E+02 -0.26811941656E+03  0.26888251557E+03  0.00000000000E+00 0. -1.
         21    1    1    2  504  502 -0.38784063329E+01  0.19868155592E+02 -0.10268272748E+02  0.22698525669E+02  0.00000000000E+00 0. -1.
<mgrwt>
<rscale>  2 0.20243163E+02</rscale>
<asrwt>0</asrwt>
<pdfrwt beam="1">  1       21 0.10148732E-02 0.20243163E+02</pdfrwt>
<pdfrwt beam="2">  1       21 0.43843750E-01 0.20243163E+02</pdfrwt>
<totfact> 0.14081440E+07</totfact>
</mgrwt>
</event>
<event>
 4    1  0.4353697E+006  0.2651554E+02  0.7546771E-02  0.1640142E+00
         21   -1    0    0  503  501  0.00000000000E+00  0.00000000000E+00  0.72204471807E+02  0.72204471807E+02  0.00000000000E+00 0. -1.
         21   -1    0    0  504  502 -0.00000000000E+00 -0.00000000000E+00 -0.36729024635E+02  0.36729024635E+02  0.00000000000E+00 0.  1.
         21    1    1    2  503  502  0.22517309304E+02 -0.14001593203E+02 -0.28954265601E+02  0.39260964418E+02  0.00000000000E+00 0.  1.
         21    1    1    2  504  501 -0.22517309304E+02  0.14001593203E+02  0.64429712773E+02  0.69672532023E+02  0.00000000000E+00 0. -1.
<mgrwt>
<rscale>  2 0.26515539E+02</rscale>
<asrwt>0</asrwt>
<pdfrwt beam="1">  1       21 0.11108380E-01 0.26515539E+02</pdfrwt>
<pdfrwt beam="2">  1       21 0.56506192E-02 0.26515539E+02</pdfrwt>
<totfact> 0.11834781E+07</totfact>
</mgrwt>
</event>
<event>
 4    1  0.4353697E+006  0.4047570E+02  0.7546771E-02  0.1504740E+00
         21   -1    0    0  504  501  0.00000000000E+00  0.00000000000E+00  0.77451739164E+02  0.77451739164E+02  0.00000000000E+00 0.  1.
         21   -1    0    0  503  502 -0.00000000000E+00 -0.00000000000E+00 -0.25278226082E+02  0.25278226082E+02  0.00000000000E+00 0.  1.
         21    1    1    2  503  501  0.40304754010E+02  0.37160447064E+01  0.53350062841E+01  0.40825782002E+02  0.00000000000E+00 0.  1.
         21    1    1    2  504  502 -0.40304754010E+02 -0.37160447064E+01  0.46838506798E+02  0.61904183244E+02  0.00000000000E+00 0.  1.
<mgrwt>
<rscale>  2 0.40475699E+02</rscale>
<asrwt>0</asrwt>
<pdfrwt beam="1">  1       21 0.11915652E-01 0.40475699E+02</pdfrwt>
<pdfrwt beam="2">  1       21 0.38889579E-02 0.40475699E+02</pdfrwt>
<totfact> 0.20600484E+07</totfact>
</mgrwt>
</event>
<event>
 4    1  0.4353697E+006  0.2840783E+02  0.7546771E-02  0.1616386E+00
         21   -1    0    0  503  501  0.00000000000E+00  0.00000000000E+00  0.10766887511E+03  0.10766887511E+03  0.00000000000E+00 0. -1.
         21   -1    0    0  504  502 -0.00000000000E+00 -0.00000000000E+00 -0.75491833470E+01  0.75491833470E+01  0.00000000000E+00 0. -1.
         21    1    1    2  503  502 -0.27745111118E+02  0.61002780153E+01  0.45190283352E+02  0.53377582300E+02  0.00000000000E+00 0. -1.
         21    1    1    2  504  501  0.27745111118E+02 -0.61002780153E+01  0.54929408407E+02  0.61840476153E+02  0.00000000000E+00 0. -1.
<mgrwt>
<rscale>  2 0.28407826E+02</rscale>
<asrwt>0</asrwt>
<pdfrwt beam="1">  1       21 0.16564441E-01 0.28407826E+02</pdfrwt>
<pdfrwt beam="2">  1       21 0.11614129E-02 0.28407826E+02</pdfrwt>
<totfact> 0.71818017E+07</totfact>
</mgrwt>
</event>
<event>
 4    1  0.4353697E+006  0.2052229E+02  0.7546771E-02  0.1735137E+00
         21   -1    0    0  504  501  0.00000000000E+00  0.00000000000E+00  0.17465167368E+03  0.17465167368E+03  0.00000000000E+00 0.  1.
         21   -1    0    0  503  502 -0.00000000000E+00 -0.00000000000E+00 -0.27697210691E+01  0.27697210691E+01  0.00000000000E+00 0.  1.
         21    1    1    2  503  501 -0.57101988229E+01 -0.19711874864E+02  0.54035755534E+02  0.57801619851E+02  0.00000000000E+00 0.  1.
         21    1    1    2  504  502  0.57101988229E+01  0.19711874864E+02  0.11784619708E+03  0.11961977490E+03  0.00000000000E+00 0.  1.
<mgrwt>
<rscale>  2 0.20522290E+02</rscale>
<asrwt>0</asrwt>
<pdfrwt beam="1">  1       21 0.26869480E-01 0.20522290E+02</pdfrwt>
<pdfrwt beam="2">  1       21 0.42611107E-03 0.20522290E+02</pdfrwt>
<totfact> 0.12551863E+08</totfact>
</mgrwt>
</event>
<event>
 4    1  0.4353697E+006  0.2788471E+02  0.7546771E-02  0.1622721E+00
         21   -1    0    0  504  501  0.00000000000E+00  0.00000000000E+00  0.46105225839E+03  0.46105225839E+03  0.00000000000E+00 0.  1.
         21   -1    0    0  501  502 -0.00000000000E+00 -0.00000000000E+00 -0.85796576053E+01  0.85796576053E+01  0.00000000000E+00 0. -1.
         21    1    1    2  503  502 -0.24198985644E+02  0.13855182035E+02  0.15760457584E+02  0.32030438628E+02  0.00000000000E+00 0. -1.
         21    1    1    2  504  503  0.24198985644E+02 -0.13855182035E+02  0.43671214320E+03  0.43760147736E+03  0.00000000000E+00 0.  1.
<mgrwt>
<rscale>  2 0.27884709E+02</rscale>
<asrwt>0</asrwt>
<pdfrwt beam="1">  1       21 0.70931098E-01 0.27884709E+02</pdfrwt>
<pdfrwt beam="2">  1       21 0.13199477E-02 0.27884709E+02</pdfrwt>
<totfact> 0.38469021E+06</totfact>
</mgrwt>
</event>
<event>
 4    1  0.4353697E+006  0.2030856E+02  0.7546771E-02  0.1739261E+00
         21   -1    0    0  504  501  0.00000000000E+00  0.00000000000E+00  0.11262722264E+04  0.11262722264E+04  0.00000000000E+00 0.  1.
         21   -1    0    0  503  502 -0.00000000000E+00 -0.00000000000E+00 -0.36920250937E+00  0.36920250937E+00  0.00000000000E+00 0. -1.
         21    1    1    2  503  501 -0.32993342008E+01 -0.20038759575E+02  0.61377724657E+03  0.61411313770E+03  0.00000000000E+00 0. -1.
         21    1    1    2  504  502  0.32993342008E+01  0.20038759575E+02  0.51212577735E+03  0.51252829124E+03  0.00000000000E+00 0.  1.
<mgrwt>
<rscale>  2 0.20308557E+02</rscale>
<asrwt>0</asrwt>
<pdfrwt beam="1">  1       21 0.17326990E+00 0.20308557E+02</pdfrwt>
<pdfrwt beam="2">  1       21 0.56801288E-04 0.20308557E+02</pdfrwt>
<totfact> 0.48524606E+07</totfact>
</mgrwt>
</event>
<event>
 4    1  0.4353697E+006  0.7262431E+02  0.7546771E-02  0.1351390E+00
         21   -1    0    0  504  501  0.00000000000E+00  0.00000000000E+00  0.16844915535E+04  0.16844915535E+04  0.00000000000E+00 0. -1.
         21   -1    0    0  503  502 -0.00000000000E+00 -0.00000000000E+00 -0.13120469696E+02  0.13120469696E+02  0.00000000000E+00 0. -1.
         21    1    1    2  503  501 -0.72210648654E+02 -0.77403596450E+01  0.95052533189E+02  0.11962138192E+03  0.00000000000E+00 0. -1.
         21    1    1    2  504  502  0.72210648654E+02  0.77403596450E+01  0.15763185507E+04  0.15779906413E+04  0.00000000000E+00 0. -1.
<mgrwt>
<rscale>  2 0.72624314E+02</rscale>
<asrwt>0</asrwt>
<pdfrwt beam="1">  1       21 0.25915237E+00 0.72624314E+02</pdfrwt>
<pdfrwt beam="2">  1       21 0.20185351E-02 0.72624314E+02</pdfrwt>
<totfact> 0.80743287E+04</totfact>
</mgrwt>
</event>
<event>
 4    1  0.4353697E+006  0.2251316E+02  0.7546771E-02  0.1699525E+00
         21   -1    0    0  504  501  0.00000000000E+00  0.00000000000E+00  0.73959788177E+01  0.73959788177E+01  0.00000000000E+00 0. -1.
         21   -1    0    0  503  502 -0.00000000000E+00 -0.00000000000E+00 -0.10411231877E+03  0.10411231877E+03  0.00000000000E+00 0. -1.
         21    1    1    2  503  501 -0.18646080174E+02  0.12616102258E+02 -0.80952842716E+02  0.84025026545E+02  0.00000000000E+00 0. -1.
         21    1    1    2  504  502  0.18646080174E+02 -0.12616102258E+02 -0.15763497235E+02  0.27483271041E+02  0.00000000000E+00 0. -1.
<mgrwt>
<rscale>  2 0.22513159E+02</rscale>
<asrwt>0</asrwt>
<pdfrwt beam="1">  1       21 0.11378429E-02 0.22513159E+02</pdfrwt>
<pdfrwt beam="2">  1       21 0.16017279E-01 0.22513159E+02</pdfrwt>
<totfact> 0.74007390E+07</totfact>
</mgrwt>
</event>
<event>
 4    1  0.4353697E+006  0.2416344E+02  0.7546771E-02  0.1673317E+00
         21   -1    0    0  504  501  0.00000000000E+00  0.00000000000E+00  0.72733420476E+02  0.72733420476E+02  0.00000000000E+00 0.  1.
         21   -1    0    0  503  502 -0.00000000000E+00 -0.00000000000E+00 -0.78251138409E+02  0.78251138409E+02  0.00000000000E+00 0. -1.
         21    1    1    2  503  501  0.11668898309E+02 -0.21159124763E+02  0.68756395947E+02  0.72878760501E+02  0.00000000000E+00 0.  1.
         21    1    1    2  504  502 -0.11668898309E+02  0.21159124763E+02 -0.74274113880E+02  0.78105798384E+02  0.00000000000E+00 0. -1.
<mgrwt>
<rscale>  2 0.24163438E+02</rscale>
<asrwt>0</asrwt>
<pdfrwt beam="1">  1       21 0.11189757E-01 0.24163438E+02</pdfrwt>
<pdfrwt beam="2">  1       21 0.12038637E-01 0.24163438E+02</pdfrwt>
<totfact> 0.33267698E+06</totfact>
</mgrwt>
</event>
<event>
 4    1  0.4353697E+006  0.3024657E+02  0.7546771E-02  0.1595379E+00
         21   -1    0    0  504  501  0.00000000000E+00  0.00000000000E+00  0.17873820589E+03  0.17873820589E+03  0.00000000000E+00 0. -1.
         21   -1    0    0  501  502 -0.00000000000E+00 -0.00000000000E+00 -0.17848626333E+02  0.17848626333E+02  0.00000000000E+00 0. -1.
         21    1    1    2  503  502 -0.16223079634E+02 -0.25527759602E+02 -0.25670385226E+01  0.30355304477E+02  0.00000000000E+00 0. -1.
         21    1    1    2  504  503  0.16223079634E+02  0.25527759602E+02  0.16345661807E+03  0.16623152774E+03  0.00000000000E+00 0. -1.
<mgrwt>
<rscale>  2 0.30246567E+02</rscale>
<asrwt>0</asrwt>
<pdfrwt beam="1">  1       21 0.27498184E-01 0.30246567E+02</pdfrwt>
<pdfrwt beam="2">  1       21 0.27459426E-02 0.30246567E+02</pdfrwt>
<totfact> 0.78447076E+06</totfact>
</mgrwt>
</event>
<event>
 4    1  0.4353697E+006  0.2389984E+02  0.7546771E-02  0.1677326E+00
         21   -1    0    0  504  501  0.00000000000E+00  0.00000000000E+00  0.12996047861E+03  0.12996047861E+03  0.00000000000E+00 0.  1.
         21   -1    0    0  503  502 -0.00000000000E+00 -0.00000000000E+00 -0.64996899043E+01  0.64996899043E+01  0.00000000000E+00 0. -1.
         21    1    1    2  503  501 -0.12070540912E+02  0.20627763512E+02  0.22906170515E+02  0.33104308377E+02  0.00000000000E+00 0. -1.
         21    1    1    2  504  502  0.12070540912E+02 -0.20627763512E+02  0.10055461819E+03  0.10335586014E+03  0.00000000000E+00 0.  1.
<mgrwt>
<rscale>  2 0.23899845E+02</rscale>
<asrwt>0</asrwt>
<pdfrwt beam="1">  1       21 0.19993918E-01 0.23899845E+02</pdfrwt>
<pdfrwt beam="2">  1       21 0.99995239E-03 0.23899845E+02</pdfrwt>
<totfact> 0.62247290E+07</totfact>
</mgrwt>
</event>
<event>
 4    1  0.4353697E+006  0.2724113E+02  0.7546771E-02  0.1630753E+00
         21   -1    0    0  504  501  0.00000000000E+00  0.00000000000E+00  0.29298821366E+03  0.29298821366E+03  0.00000000000E+00 0. -1.
         21   -1    0    0  501  502 -0.00000000000E+00 -0.00000000000E+00 -0.23143540784E+02  0.23143540784E+02  0.00000000000E+00 0. -1.
         21    1    1    2  503  502 -0.23124647547E+02 -0.14398948210E+02 -0.14243744389E+02  0.30740255170E+02  0.00000000000E+00 0. -1.
         21    1    1    2  504  503  0.23124647547E+02  0.14398948210E+02  0.28408841727E+03  0.28539149927E+03  0.00000000000E+00 0. -1.
<mgrwt>
<rscale>  2 0.27241128E+02</rscale>
<asrwt>0</asrwt>
<pdfrwt beam="1">  1       21 0.45075107E-01 0.27241128E+02</pdfrwt>
<pdfrwt beam="2">  1       21 0.35605449E-02 0.27241128E+02</pdfrwt>
<totfact> 0.20387871E+06</totfact>
</mgrwt>
</event>
<event>
 4    1  0.4353697E+006  0.2084631E+02  0.7546771E-02  0.1729004E+00
         21   -1    0    0  502  501  0.00000000000E+00  0.00000000000E+00  0.93561974279E+01  0.93561974279E+01  0.00000000000E+00 0. -1.
         21   -1    0    0  504  502 -0.00000000000E+00 -0.00000000000E+00 -0.75305018317E+02  0.75305018317E+02  0.00000000000E+00 0. -1.
         21    1    1    2  503  501  0.15089710695E+02  0.14382946414E+02 -0.67699741654E+01  0.21918053440E+02  0.00000000000E+00 0. -1.
         21    1    1    2  504  503 -0.15089710695E+02 -0.14382946414E+02 -0.59178846724E+02  0.62743162305E+02  0.00000000000E+00 0. -1.
<mgrwt>
<rscale>  2 0.20846307E+02</rscale>
<asrwt>0</asrwt>
<pdfrwt beam="1">  1       21 0.14394150E-02 0.20846307E+02</pdfrwt>
<pdfrwt beam="2">  1       21 0.11585387E-01 0.20846307E+02</pdfrwt>
<totfact> 0.87715110E+07</totfact>
</mgrwt>
</event>
<event>
 4    1  0.4353697E+006  0.4120623E+02  0.7546771E-02  0.1499518E+00
         21   -1    0    0  502  501  0.00000000000E+00  0.00000000000E+00  0.12995127540E+03  0.12995127540E+03  0.00000000000E+00 0.  1.
         21   -1    0    0  504  502 -0.00000000000E+00 -0.00000000000E+00 -0.32509072200E+02  0.32509072200E+02  0.00000000000E+00 0. -1.
         21    1    1    2  503  501  0.34413275494E+02 -0.22664510081E+02  0.11154091821E+03  0.11890891464E+03  0.00000000000E+00 0.  1.
         21    1    1    2  504  503 -0.34413275494E+02  0.22664510081E+02 -0.14098715009E+02  0.43551432954E+02  0.00000000000E+00 0. -1.
<mgrwt>
<rscale>  2 0.41206232E+02</rscale>
<asrwt>0</asrwt>
<pdfrwt beam="1">  1       21 0.19992504E-01 0.41206232E+02</pdfrwt>
<pdfrwt beam="2">  1       21 0.50013958E-02 0.41206232E+02</pdfrwt>
<totfact> 0.55723880E+06</totfact>
</mgrwt>
</event>
<event>
 4    1  0.4353697E+006  0.2481190E+02  0.7546771E-02  0.1663718E+00
         21   -1    0    0  504  501  0.00000000000E+00  0.00000000000E+00  0.10315216969E+03  0.10315216969E+03  0.00000000000E+00 0.  1.
         21   -1    0    0  503  502 -0.00000000000E+00 -0.00000000000E+00 -0.50907692400E+02  0.50907692400E+02  0.00000000000E+00 0.  1.
         21    1    1    2  503  501 -0.19133222351E+02 -0.15797152852E+02 -0.46251666006E+02  0.52486634909E+02  0.00000000000E+00 0.  1.
         21    1    1    2  504  502  0.19133222351E+02  0.15797152852E+02  0.98496143298E+02  0.10157322718E+03  0.00000000000E+00 0.  1.
<mgrwt>
<rscale>  2 0.24811897E+02</rscale>
<asrwt>0</asrwt>
<pdfrwt beam="1">  1       21 0.15869565E-01 0.24811897E+02</pdfrwt>
<pdfrwt beam="2">  1       21 0.78319527E-02 0.24811897E+02</pdfrwt>
<totfact> 0.37672020E+06</totfact>
</mgrwt>
</event>
<event>
 4    1  0.4353697E+006  0.2638883E+02  0.7546771E-02  0.1641819E+00
         21   -1    0    0  504  501  0.00000000000E+00  0.00000000000E+00  0.29866853985E+01  0.29866853985E+01  0.00000000000E+00 0.  1.
         21   -1    0    0  503  502 -0.00000000000E+00 -0.00000000000E+00 -0.36266626321E+03  0.36266626321E+03  0.00000000000E+00 0.  1.
         21    1    1    2  503  501 -0.25905425904E+02 -0.50278222980E+01 -0.70586638848E+02  0.75358102897E+02  0.00000000000E+00 0.  1.
         21    1    1    2  504  502  0.25905425904E+02  0.50278222980E+01 -0.28909293896E+03  0.29029484571E+03  0.00000000000E+00 0.  1.
<mgrwt>
<rscale>  2 0.26388825E+02</rscale>
<asrwt>0</asrwt>
<pdfrwt beam="1">  1       21 0.45949009E-03 0.26388825E+02</pdfrwt>
<pdfrwt beam="2">  1       21 0.55794806E-01 0.26388825E+02</pdfrwt>
<totfact> 0.30231713E+07</totfact>
</mgrwt>
</event>
<event>
 4    1  0.4353697E+006  0.2252684E+02  0.7546771E-02  0.1699297E+00
         21   -1    0    0  503  501  0.00000000000E+00  0.00000000000E+00  0.91431744408E+03  0.91431744408E+03  0.00000000000E+00 0. -1.
         21   -1    0    0  501  502 -0.00000000000E+00 -0.00000000000E+00 -0.24724397383E+01  0.24724397383E+01  0.00000000000E+00 0. -1.
         21    1    1    2  503  504  0.18034562469E+02 -0.13498639459E+02  0.85960160617E+03  0.85989672638E+03  0.00000000000E+00 0. -1.
         21    1    1    2  504  502 -0.18034562469E+02  0.13498639459E+02  0.52243398173E+02  0.56893157438E+02  0.00000000000E+00 0. -1.
<mgrwt>
<rscale>  2 0.22526844E+02</rscale>
<asrwt>0</asrwt>
<pdfrwt beam="1">  1       21 0.14066395E+00 0.22526844E+02</pdfrwt>
<pdfrwt beam="2">  1       21 0.38037607E-03 0.22526844E+02</pdfrwt>
<totfact> 0.53279306E+06</totfact>
</mgrwt>
</event>
<event>
 4    1  0.4353697E+006  0.2770955E+02  0.7546771E-02  0.1624880E+00
         21   -1    0    0  502  501  0.00000000000E+00  0.00000000000E+00  0.98007752870E+03  0.98007752870E+03  0.00000000000E+00 0.  1.
         21   -1    0    0  504  502 -0.00000000000E+00 -0.00000000000E+00 -0.45043425310E+01  0.45043425310E+01  0.00000000000E+00 0. -1.
         21    1    1    2  503  501 -0.39317338736E+01 -0.27429193701E+02  0.93522271326E+03  0.93563312393E+03  0.00000000000E+00 0.  1.
         21    1    1    2  504  503  0.39317338736E+01  0.27429193701E+02  0.40350472911E+02  0.48948747302E+02  0.00000000000E+00 0. -1.
<mgrwt>
<rscale>  2 0.27709551E+02</rscale>
<asrwt>0</asrwt>
<pdfrwt beam="1">  1       21 0.15078099E+00 0.27709551E+02</pdfrwt>
<pdfrwt beam="2">  1       21 0.69297656E-03 0.27709551E+02</pdfrwt>
<totfact> 0.18999285E+06</totfact>
</mgrwt>
</event>
<event>
 4    1  0.4353697E+006  0.2459945E+02  0.7546771E-02  0.1666823E+00
         21   -1    0    0  502  501  0.00000000000E+00  0.00000000000E+00  0.88825154908E+02  0.88825154908E+02  0.00000000000E+00 0.  1.
         21   -1    0    0  504  502 -0.00000000000E+00 -0.00000000000E+00 -0.96574193592E+02  0.96574193592E+02  0.00000000000E+00 0.  1.
         21    1    1    2  503  501 -0.50280117472E+01  0.24080114645E+02  0.85495709475E+02  0.88964313980E+02  0.00000000000E+00 0.  1.
         21    1    1    2  504  503  0.50280117472E+01 -0.24080114645E+02 -0.93244748159E+02  0.96435034519E+02  0.00000000000E+00 0.  1.
<mgrwt>
<rscale>  2 0.24599448E+02</rscale>
<asrwt>0</asrwt>
<pdfrwt beam="1">  1       21 0.13665408E-01 0.24599448E+02</pdfrwt>
<pdfrwt beam="2">  1       21 0.14857568E-01 0.24599448E+02</pdfrwt>
<totfact> 0.16687513E+06</totfact>
</mgrwt>
</event>
<event>
 4    1  0.4353697E+006  0.3977718E+02  0.7546771E-02  0.1509858E+00
         21   -1    0    0  503  501  0.00000000000E+00  0.00000000000E+00  0.21989946143E+04  0.21989946143E+04  0.00000000000E+00 0. -1.
         21   -1    0    0  504  502 -0.00000000000E+00 -0.00000000000E+00 -0.22223515311E+01  0.22223515311E+01  0.00000000000E+00 0. -1.
         21    1    1    2  503  502 -0.12247727063E+02 -0.37844643601E+02  0.19331770983E+03  0.19736757789E+03  0.00000000000E+00 0. -1.
         21    1    1    2  504  501  0.12247727063E+02  0.37844643601E+02  0.20034545530E+04  0.20038493880E+04  0.00000000000E+00 0. -1.
<mgrwt>
<rscale>  2 0.39777178E+02</rscale>
<asrwt>0</asrwt>
<pdfrwt beam="1">  1       21 0.33830512E+00 0.39777178E+02</pdfrwt>
<pdfrwt beam="2">  1       21 0.34190199E-03 0.39777178E+02</pdfrwt>
<totfact> 0.50596528E+05</totfact>
</mgrwt>
</event>
<event>
 4    1  0.4353697E+006  0.3073981E+02  0.7546771E-02  0.1590052E+00
         21   -1    0    0  504  501  0.00000000000E+00  0.00000000000E+00  0.33629666534E+03  0.33629666534E+03  0.00000000000E+00 0.  1.
         21   -1    0    0  503  502 -0.00000000000E+00 -0.00000000000E+00 -0.10860163621E+02  0.10860163621E+02  0.00000000000E+00 0.  1.
         21    1    1    2  503  501 -0.29423803355E+02 -0.88980709021E+01  0.13272173752E+02  0.33482629314E+02  0.00000000000E+00 0.  1.
         21    1    1    2  504  502  0.29423803355E+02  0.88980709021E+01  0.31216432797E+03  0.31367419965E+03  0.00000000000E+00 0.  1.
<mgrwt>
<rscale>  2 0.30739809E+02</rscale>
<asrwt>0</asrwt>
<pdfrwt beam="1">  1       21 0.51737940E-01 0.30739809E+02</pdfrwt>
<pdfrwt beam="2">  1       21 0.16707947E-02 0.30739809E+02</pdfrwt>
<totfact> 0.51369497E+06</totfact>
</mgrwt>
</event>
<event>
 4    1  0.4353697E+006  0.4282072E+02  0.7546771E-02  0.1488424E+00
         21   -1    0    0  504  501  0.00000000000E+00  0.00000000000E+00  0.38456756687E+03  0.38456756687E+03  0.00000000000E+00 0.  1.
         21   -1    0    0  503  502 -0.00000000000E+00 -0.00000000000E+00 -0.49606430701E+01  0.49606430701E+01  0.00000000000E+00 0.  1.
         21    1    1    2  503  501 -0.71644407967E+01  0.42217118459E+02  0.22818549068E+03  0.23216854322E+03  0.00000000000E+00 0.  1.
         21    1    1    2  504  502  0.71644407967E+01 -0.42217118459E+02  0.15142143312E+03  0.15735966672E+03  0.00000000000E+00 0.  1.
<mgrwt>
<rscale>  2 0.42820723E+02</rscale>
<asrwt>0</asrwt>
<pdfrwt beam="1">  1       21 0.59164218E-01 0.42820723E+02</pdfrwt>
<pdfrwt beam="2">  1       21 0.76317616E-03 0.42820723E+02</pdfrwt>
<totfact> 0.13570162E+07</totfact>
</mgrwt>
</event>
<event>
 4    1  0.4353697E+006  0.2852257E+02  0.7546771E-02  0.1615018E+00
         21   -1    0    0  503  501  0.00000000000E+00  0.00000000000E+00  0.24236694809E+02  0.24236694809E+02  0.00000000000E+00 0.  1.
         21   -1    0    0  504  502 -0.00000000000E+00 -0.00000000000E+00 -0.46073631684E+02  0.46073631684E+02  0.00000000000E+00 0.  1.
         21    1    1    2  503  502 -0.15829773358E+02  0.23726681255E+02  0.73981181144E+01  0.29466409343E+02  0.00000000000E+00 0.  1.
         21    1    1    2  504  501  0.15829773358E+02 -0.23726681255E+02 -0.29235054989E+02  0.40843917150E+02  0.00000000000E+00 0.  1.
<mgrwt>
<rscale>  2 0.28522572E+02</rscale>
<asrwt>0</asrwt>
<pdfrwt beam="1">  1       21 0.37287223E-02 0.28522572E+02</pdfrwt>
<pdfrwt beam="2">  1       21 0.70882510E-02 0.28522572E+02</pdfrwt>
<totfact> 0.49060032E+07</totfact>
</mgrwt>
</event>
<event>
 4    1  0.4353697E+006  0.2120669E+02  0.7546771E-02  0.1722344E+00
         21   -1    0    0  503  501  0.00000000000E+00  0.00000000000E+00  0.50259414970E+03  0.50259414970E+03  0.00000000000E+00 0. -1.
         21   -1    0    0  504  502 -0.00000000000E+00 -0.00000000000E+00 -0.12034087829E+01  0.12034087829E+01  0.00000000000E+00 0. -1.
         21    1    1    2  503  502 -0.90380875513E+00 -0.21187425547E+02  0.37825696468E+03  0.37885096700E+03  0.00000000000E+00 0. -1.
         21    1    1    2  504  501  0.90380875513E+00  0.21187425547E+02  0.12313377624E+03  0.12494659148E+03  0.00000000000E+00 0. -1.
<mgrwt>
<rscale>  2 0.21206694E+02</rscale>
<asrwt>0</asrwt>
<pdfrwt beam="1">  1       21 0.77322010E-01 0.21206694E+02</pdfrwt>
<pdfrwt beam="2">  1       21 0.18514021E-03 0.21206694E+02</pdfrwt>
<totfact> 0.55876928E+07</totfact>
</mgrwt>
</event>
<event>
 4    1  0.4353697E+006  0.2347621E+02  0.7546771E-02  0.1683905E+00
         21   -1    0    0  503  501  0.00000000000E+00  0.00000000000E+00  0.26961211280E+01  0.26961211280E+01  0.00000000000E+00 0. -1.
         21   -1    0    0  504  502 -0.00000000000E+00 -0.00000000000E+00 -0.21447199940E+03  0.21447199940E+03  0.00000000000E+00 0. -1.
         21    1    1    2  503  502  0.19117625826E+02 -0.13625295569E+02 -0.12939927884E+03  0.13151161797E+03  0.00000000000E+00 0. -1.
         21    1    1    2  504  501 -0.19117625826E+02  0.13625295569E+02 -0.82376599425E+02  0.85656502552E+02  0.00000000000E+00 0. -1.
<mgrwt>
<rscale>  2 0.23476207E+02</rscale>
<asrwt>0</asrwt>
<pdfrwt beam="1">  1       21 0.41478778E-03 0.23476207E+02</pdfrwt>
<pdfrwt beam="2">  1       21 0.32995699E-01 0.23476207E+02</pdfrwt>
<totfact> 0.93365701E+07</totfact>
</mgrwt>
</event>
<event>
 4    1  0.4353697E+006  0.2088982E+02  0.7546771E-02  0.1728191E+00
         21   -1    0    0  504  501  0.00000000000E+00  0.00000000000E+00  0.34226145981E+03  0.34226145981E+03  0.00000000000E+00 0. -1.
         21   -1    0    0  503  502 -0.00000000000E+00 -0.00000000000E+00 -0.14327824575E+01  0.14327824575E+01  0.00000000000E+00 0. -1.
         21    1    1    2  503  501 -0.60961453958E+01  0.19980528300E+02  0.22744086434E+03  0.22839818579E+03  0.00000000000E+00 0. -1.
         21    1    1    2  504  502  0.60961453958E+01 -0.19980528300E+02  0.11338781301E+03  0.11529605648E+03  0.00000000000E+00 0. -1.
<mgrwt>
<rscale>  2 0.20889818E+02</rscale>
<asrwt>0</asrwt>
<pdfrwt beam="1">  1       21 0.52655544E-01 0.20889818E+02</pdfrwt>
<pdfrwt beam="2">  1       21 0.22042834E-03 0.20889818E+02</pdfrwt>
<totfact> 0.93802424E+07</totfact>
</mgrwt>
</event>
<event>
 4    1  0.4353697E+006  0.2150947E+02  0.7546771E-02  0.1716876E+00
         21   -1    0    0  503  501  0.00000000000E+00  0.00000000000E+00  0.52570708229E+01  0.52570708229E+01  0.00000000000E+00 0.  1.
         21   -1    0    0  504  502 -0.00000000000E+00 -0.00000000000E+00 -0.33138881187E+03  0.33138881187E+03  0.00000000000E+00 0.  1.
         21    1    1    2  503  502 -0.18067591713E+02  0.11671310619E+02 -0.18814903251E+02  0.28577227756E+02  0.00000000000E+00 0.  1.
         21    1    1    2  504  501  0.18067591713E+02 -0.11671310619E+02 -0.30731683780E+03  0.30806865494E+03  0.00000000000E+00 0.  1.
<mgrwt>
<rscale>  2 0.21509471E+02</rscale>
<asrwt>0</asrwt>
<pdfrwt beam="1">  1       21 0.80877992E-03 0.21509471E+02</pdfrwt>
<pdfrwt beam="2">  1       21 0.50982907E-01 0.21509471E+02</pdfrwt>
<totfact> 0.14972503E+07</totfact>
</mgrwt>
</event>
<event>
 4    1  0.4353697E+006  0.2373544E+02  0.7546771E-02  0.1679859E+00
         21   -1    0    0  504  501  0.00000000000E+00  0.00000000000E+00  0.78593143575E+01  0.78593143575E+01  0.00000000000E+00 0. -1.
         21   -1    0    0  501  502 -0.00000000000E+00 -0.00000000000E+00 -0.16899561111E+03  0.16899561111E+03  0.00000000000E+00 0. -1.
         21    1    1    2  503  502 -0.20565927316E+02 -0.11849622189E+02 -0.14767028913E+03  0.14956565517E+03  0.00000000000E+00 0. -1.
         21    1    1    2  504  503  0.20565927316E+02  0.11849622189E+02 -0.13466007617E+02  0.27289270300E+02  0.00000000000E+00 0. -1.
<mgrwt>
<rscale>  2 0.23735436E+02</rscale>
<asrwt>0</asrwt>
<pdfrwt beam="1">  1       21 0.12091254E-02 0.23735436E+02</pdfrwt>
<pdfrwt beam="2">  1       21 0.25999323E-01 0.23735436E+02</pdfrwt>
<totfact> 0.29319825E+07</totfact>
</mgrwt>
</event>
<event>
 4    1  0.4353697E+006  0.3814861E+02  0.7546771E-02  0.1522295E+00
         21   -1    0    0  504  501  0.00000000000E+00  0.00000000000E+00  0.18723551749E+03  0.18723551749E+03  0.00000000000E+00 0. -1.
         21   -1    0    0  503  502 -0.00000000000E+00 -0.00000000000E+00 -0.35377924611E+02  0.35377924611E+02  0.00000000000E+00 0. -1.
         21    1    1    2  503  501 -0.37651790773E+02 -0.61366777774E+01 -0.22393326759E+02  0.44235474971E+02  0.00000000000E+00 0. -1.
         21    1    1    2  504  502  0.37651790773E+02  0.61366777774E+01  0.17425091964E+03  0.17837796713E+03  0.00000000000E+00 0. -1.
<mgrwt>
<rscale>  2 0.38148606E+02</rscale>
<asrwt>0</asrwt>
<pdfrwt beam="1">  1       21 0.28805464E-01 0.38148606E+02</pdfrwt>
<pdfrwt beam="2">  1       21 0.54427577E-02 0.38148606E+02</pdfrwt>
<totfact> 0.24830431E+06</totfact>
</mgrwt>
</event>
<event>
 4    1  0.4353697E+006  0.2303097E+02  0.7546771E-02  0.1691009E+00
         21   -1    0    0  502  501  0.00000000000E+00  0.00000000000E+00  0.23312272365E+03  0.23312272365E+03  0.00000000000E+00 0.  1.
         21   -1    0    0  503  502 -0.00000000000E+00 -0.00000000000E+00 -0.37364143854E+02  0.37364143854E+02  0.00000000000E+00 0.  1.
         21    1    1    2  503  504  0.17680624321E+02 -0.14758762791E+02 -0.33181615140E+02  0.40391151739E+02  0.00000000000E+00 0.  1.
         21    1    1    2  504  501 -0.17680624321E+02  0.14758762791E+02  0.22894019494E+03  0.23009571576E+03  0.00000000000E+00 0.  1.
<mgrwt>
<rscale>  2 0.23030969E+02</rscale>
<asrwt>0</asrwt>
<pdfrwt beam="1">  1       21 0.35865034E-01 0.23030969E+02</pdfrwt>
<pdfrwt beam="2">  1       21 0.57483300E-02 0.23030969E+02</pdfrwt>
<totfact> 0.14410893E+06</totfact>
</mgrwt>
</event>
<event>
 4    1  0.4353697E+006  0.2012528E+02  0.7546771E-02  0.1742848E+00
         21   -1    0    0  502  501  0.00000000000E+00  0.00000000000E+00  0.64958927987E+02  0.64958927987E+02  0.00000000000E+00 0. -1.
         21   -1    0    0  504  502 -0.00000000000E+00 -0.00000000000E+00 -0.12828659027E+03  0.12828659027E+03  0.00000000000E+00 0. -1.
         21    1    1    2  503  501  0.19843151051E+02  0.33580004047E+01  0.62581600712E+02  0.65737991740E+02  0.00000000000E+00 0. -1.
         21    1    1    2  504  503 -0.19843151051E+02 -0.33580004047E+01 -0.12590926300E+03  0.12750752652E+03  0.00000000000E+00 0. -1.
<mgrwt>
<rscale>  2 0.20125278E+02</rscale>
<asrwt>0</asrwt>
<pdfrwt beam="1">  1       21 0.99936814E-02 0.20125278E+02</pdfrwt>
<pdfrwt beam="2">  1       21 0.19736398E-01 0.20125278E+02</pdfrwt>
<totfact> 0.16855340E+06</totfact>
</mgrwt>
</event>
<event>
 4    1  0.4353697E+006  0.2159260E+02  0.7546771E-02  0.1715395E+00
         21   -1    0    0  504  501  0.00000000000E+00  0.00000000000E+00  0.14821156466E+04  0.14821156466E+04  0.00000000000E+00 0.  1.
         21   -1    0    0  503  502 -0.00000000000E+00 -0.00000000000E+00 -0.16383404698E+01  0.16383404698E+01  0.00000000000E+00 0.  1.
         21    1    1    2  503  501  0.16563646322E+02  0.13852287677E+02  0.14070990641E+04  0.14072647286E+04  0.00000000000E+00 0.  1.
         21    1    1    2  504  502 -0.16563646322E+02 -0.13852287677E+02  0.73378242036E+02  0.76489258446E+02  0.00000000000E+00 0.  1.
<mgrwt>
<rscale>  2 0.21592597E+02</rscale>
<asrwt>0</asrwt>
<pdfrwt beam="1">  1       21 0.22801672E+00 0.21592597E+02</pdfrwt>
<pdfrwt beam="2">  1       21 0.25205357E-03 0.21592597E+02</pdfrwt>
<totfact> 0.29018902E+06</totfact>
</mgrwt>
</event>
<event>
 4    1  0.4353697E+006  0.2839384E+02  0.7546771E-02  0.1616553E+00
         21   -1    0    0  504  501  0.00000000000E+00  0.00000000000E+00  0.12724808026E+02  0.12724808026E+02  0.00000000000E+00 0.  1.
         21   -1    0    0  503  502 -0.00000000000E+00 -0.00000000000E+00 -0.68493826686E+02  0.68493826686E+02  0.00000000000E+00 0.  1.
         21    1    1    2  503  501  0.27005809334E+02 -0.87690543859E+01 -0.16763790912E+02  0.32973242764E+02  0.00000000000E+00 0.  1.
         21    1    1    2  504  502 -0.27005809334E+02  0.87690543859E+01 -0.39005227748E+02  0.48245391949E+02  0.00000000000E+00 0.  1.
<mgrwt>
<rscale>  2 0.28393838E+02</rscale>
<asrwt>0</asrwt>
<pdfrwt beam="1">  1       21 0.19576628E-02 0.28393838E+02</pdfrwt>
<pdfrwt beam="2">  1       21 0.10537512E-01 0.28393838E+02</pdfrwt>
<totfact> 0.69672378E+07</totfact>
</mgrwt>
</event>
<event>
 4    1  0.4353697E+006  0.6981580E+02  0.7546771E-02  0.1360721E+00
         21   -1    0    0  502  501  0.00000000000E+00  0.00000000000E+00  0.52484025695E+02  0.52484025695E+02  0.00000000000E+00 0. -1.
         21   -1    0    0  504  502 -0.00000000000E+00 -0.00000000000E+00 -0.19058380366E+03  0.19058380366E+03  0.00000000000E+00 0. -1.
         21    1    1    2  503  501  0.44264844606E+02  0.53989529545E+02  0.17972329795E+02  0.72091957989E+02  0.00000000000E+00 0. -1.
         21    1    1    2  504  503 -0.44264844606E+02 -0.53989529545E+02 -0.15607210776E+03  0.17097587137E+03  0.00000000000E+00 0. -1.
<mgrwt>
<rscale>  2 0.69815799E+02</rscale>
<asrwt>0</asrwt>
<pdfrwt beam="1">  1       21 0.80744655E-02 0.69815799E+02</pdfrwt>
<pdfrwt beam="2">  1       21 0.29320585E-01 0.69815799E+02</pdfrwt>
<totfact> 0.12938964E+06</totfact>
</mgrwt>
</event>
<event>
 4    1  0.4353697E+006  0.2017454E+02  0.7546771E-02  0.1741879E+00
         21   -1    0    0  504  501  0.00000000000E+00  0.00000000000E+00  0.20503791187E+02  0.20503791187E+02  0.00000000000E+00 0. -1.
         21   -1    0    0  503  502 -0.00000000000E+00 -0.00000000000E+00 -0.21724847320E+02  0.21724847320E+02  0.00000000000E+00 0. -1.
         21    1    1    2  503  501  0.18355167742E+02  0.83725790753E+01  0.55912158393E+01  0.20934993618E+02  0.00000000000E+00 0. -1.
         21    1    1    2  504  502 -0.18355167742E+02 -0.83725790753E+01 -0.68122719728E+01  0.21293644889E+02  0.00000000000E+00 0. -1.
<mgrwt>
<rscale>  2 0.20174545E+02</rscale>
<asrwt>0</asrwt>
<pdfrwt beam="1">  1       21 0.31544294E-02 0.20174545E+02</pdfrwt>
<pdfrwt beam="2">  1       21 0.33422842E-02 0.20174545E+02</pdfrwt>
<totfact> 0.19187789E+08</totfact>
</mgrwt>
</event>
<event>
 4    1  0.4353697E+006  0.2136753E+02  0.7546771E-02  0.1719425E+00
         21   -1    0    0  503  501  0.00000000000E+00  0.00000000000E+00  0.63720740527E+01  0.63720740527E+01  0.00000000000E+00 0.  1.
         21   -1    0    0  504  502 -0.00000000000E+00 -0.00000000000E+00 -0.13926397781E+03  0.13926397781E+03  0.00000000000E+00 0.  1.
         21    1    1    2  503  502 -0.85868992012E+01  0.19566211048E+02 -0.11718373921E+03  0.11911591072E+03  0.00000000000E+00 0.  1.
         21    1    1    2  504  501  0.85868992012E+01 -0.19566211048E+02 -0.15708164555E+02  0.26520141145E+02  0.00000000000E+00 0.  1.
<mgrwt>
<rscale>  2 0.21367533E+02</rscale>
<asrwt>0</asrwt>
<pdfrwt beam="1">  1       21 0.98031908E-03 0.21367533E+02</pdfrwt>
<pdfrwt beam="2">  1       21 0.21425228E-01 0.21367533E+02</pdfrwt>
<totfact> 0.55202048E+07</totfact>
</mgrwt>
</event>
<event>
 4    1  0.4353697E+006  0.2355962E+02  0.7546771E-02  0.1682596E+00
         21   -1    0    0  503  501  0.00000000000E+00  0.00000000000E+00  0.15078936296E+02  0.15078936296E+02  0.00000000000E+00 0. -1.
         21   -1    0    0  504  502 -0.00000000000E+00 -0.00000000000E+00 -0.56226550401E+03  0.56226550401E+03  0.00000000000E+00 0. -1.
         21    1    1    2  503  502  0.16317419404E+02 -0.16994042483E+02  0.54697073533E+01  0.24186222410E+02  0.00000000000E+00 0. -1.
         21    1    1    2  504  501 -0.16317419404E+02  0.16994042483E+02 -0.55265627506E+03  0.55315821789E+03  0.00000000000E+00 0. -1.
<mgrwt>
<rscale>  2 0.23559619E+02</rscale>
<asrwt>0</asrwt>
<pdfrwt beam="1">  1       21 0.23198361E-02 0.23559619E+02</pdfrwt>
<pdfrwt beam="2">  1       21 0.86502393E-01 0.23559619E+02</pdfrwt>
<totfact> 0.10494184E+06</totfact>
</mgrwt>
</event>
<event>
 4    1  0.4353697E+006  0.2002353E+02  0.7546771E-02  0.1744861E+00
         21   -1    0    0  504  501  0.00000000000E+00  0.00000000000E+00  0.16585414666E+02  0.16585414666E+02  0.00000000000E+00 0.  1.
         21   -1    0    0  501  502 -0.00000000000E+00 -0.00000000000E+00 -0.42480216183E+02  0.42480216183E+02  0.00000000000E+00 0. -1.
         21    1    1    2  503  502 -0.19802245609E+02  0.29686510132E+01 -0.32334216825E+02  0.38032136381E+02  0.00000000000E+00 0. -1.
         21    1    1    2  504  503  0.19802245609E+02 -0.29686510132E+01  0.64394153085E+01  0.21033494467E+02  0.00000000000E+00 0.  1.
<mgrwt>
<rscale>  2 0.20023532E+02</rscale>
<asrwt>0</asrwt>
<pdfrwt beam="1">  1       21 0.25516023E-02 0.20023532E+02</pdfrwt>
<pdfrwt beam="2">  1       21 0.65354177E-02 0.20023532E+02</pdfrwt>
<totfact> 0.92156184E+07</totfact>
</mgrwt>
</event>
<event>
 4    1  0.4353697E+006  0.4411040E+02  0.7546771E-02  0.1479973E+00
         21   -1    0    0  502  501  0.00000000000E+00  0.00000000000E+00  0.76373782104E+02  0.76373782104E+02  0.00000000000E+00 0. -1.
         21   -1    0    0  503  502 -0.00000000000E+00 -0.00000000000E+00 -0.94586595678E+02  0.94586595678E+02  0.00000000000E+00 0. -1.
         21    1    1    2  503  504 -0.14141822048E+02 -0.41782006791E+02 -0.82173496762E+02  0.93264198878E+02  0.00000000000E+00 0. -1.
         21    1    1    2  504  501  0.14141822048E+02  0.41782006791E+02  0.63960683189E+02  0.77696178904E+02  0.00000000000E+00 0. -1.
<mgrwt>
<rscale>  2 0.44110398E+02</rscale>
<asrwt>0</asrwt>
<pdfrwt beam="1">  1       21 0.11749813E-01 0.44110398E+02</pdfrwt>
<pdfrwt beam="2">  1       21 0.14551784E-01 0.44110398E+02</pdfrwt>
<totfact> 0.23645043E+06</totfact>
</mgrwt>
</event>
<event>
 4    1  0.4353697E+006  0.2099192E+02  0.7546771E-02  0.1726293E+00
         21   -1    0    0  504  501  0.00000000000E+00  0.00000000000E+00  0.21083531816E+03  0.21083531816E+03  0.00000000000E+00 0. -1.
         21   -1    0    0  503  502 -0.00000000000E+00 -0.00000000000E+00 -0.10855169965E+02  0.10855169965E+02  0.00000000000E+00 0.  1.
         21    1    1    2  503  501  0.17514322373E+02  0.11571919302E+02  0.19959416126E+03  0.20069501741E+03  0.00000000000E+00 0. -1.
         21    1    1    2  504  502 -0.17514322373E+02 -0.11571919302E+02  0.38598693331E+00  0.20995470712E+02  0.00000000000E+00 0.  1.
<mgrwt>
<rscale>  2 0.20991922E+02</rscale>
<asrwt>0</asrwt>
<pdfrwt beam="1">  1       21 0.32436200E-01 0.20991922E+02</pdfrwt>
<pdfrwt beam="2">  1       21 0.16700263E-02 0.20991922E+02</pdfrwt>
<totfact> 0.11730513E+07</totfact>
</mgrwt>
</event>
<event>
 4    1  0.4353697E+006  0.3022530E+02  0.7546771E-02  0.1595612E+00
         21   -1    0    0  503  501  0.00000000000E+00  0.00000000000E+00  0.21924659288E+03  0.21924659288E+03  0.00000000000E+00 0. -1.
         21   -1    0    0  504  502 -0.00000000000E+00 -0.00000000000E+00 -0.41813092283E+01  0.41813092283E+01  0.00000000000E+00 0. -1.
         21    1    1    2  503  502  0.25102693213E+02  0.16835194511E+02  0.10096463313E+03  0.10539177446E+03  0.00000000000E+00 0. -1.
         21    1    1    2  504  501 -0.25102693213E+02 -0.16835194511E+02  0.11410065052E+03  0.11803612765E+03  0.00000000000E+00 0. -1.
<mgrwt>
<rscale>  2 0.30225304E+02</rscale>
<asrwt>0</asrwt>
<pdfrwt beam="1">  1       21 0.33730236E-01 0.30225304E+02</pdfrwt>
<pdfrwt beam="2">  1       21 0.64327852E-03 0.30225304E+02</pdfrwt>
<totfact> 0.49589018E+07</totfact>
</mgrwt>
</event>
<event>
 4    1  0.4353697E+006  0.2391462E+02  0.7546771E-02  0.1677099E+00
         21   -1    0    0  503  501  0.00000000000E+00  0.00000000000E+00  0.37432374313E+02  0.37432374313E+02  0.00000000000E+00 0. -1.
         21   -1    0    0  501  502 -0.00000000000E+00 -0.00000000000E+00 -0.59616145248E+02  0.59616145248E+02  0.00000000000E+00 0. -1.
         21    1    1    2  503  504  0.17680209561E+02  0.16103390421E+02  0.30755033377E+02  0.38958709825E+02  0.00000000000E+00 0. -1.
         21    1    1    2  504  502 -0.17680209561E+02 -0.16103390421E+02 -0.52938804312E+02  0.58089809736E+02  0.00000000000E+00 0. -1.
<mgrwt>
<rscale>  2 0.23914619E+02</rscale>
<asrwt>0</asrwt>
<pdfrwt beam="1">  1       21 0.57588269E-02 0.23914619E+02</pdfrwt>
<pdfrwt beam="2">  1       21 0.91717146E-02 0.23914619E+02</pdfrwt>
<totfact> 0.15472422E+07</totfact>
</mgrwt>
</event>
<event>
 4    1  0.4353697E+006  0.2178217E+02  0.7546771E-02  0.1712047E+00
         21   -1    0    0  503  501  0.00000000000E+00  0.00000000000E+00  0.13768575114E+02  0.13768575114E+02  0.00000000000E+00 0. -1.
         21   -1    0    0  504  502 -0.00000000000E+00 -0.00000000000E+00 -0.82642633982E+03  0.82642633982E+03  0.00000000000E+00 0. -1.
         21    1    1    2  503  502 -0.10028362026E+02  0.19336365511E+02  0.49168270207E+01  0.22330209673E+02  0.00000000000E+00 0. -1.
         21    1    1    2  504  501  0.10028362026E+02 -0.19336365511E+02 -0.81757459172E+03  0.81786470526E+03  0.00000000000E+00 0. -1.
<mgrwt>
<rscale>  2 0.21782173E+02</rscale>
<asrwt>0</asrwt>
<pdfrwt beam="1">  1       21 0.21182427E-02 0.21782173E+02</pdfrwt>
<pdfrwt beam="2">  1       21 0.12714249E+00 0.21782173E+02</pdfrwt>
<totfact> 0.51324430E+05</totfact>
</mgrwt>
</event>
<event>
 4    1  0.4353697E+006  0.2286298E+02  0.7546771E-02  0.1693741E+00
         21   -1    0    0  504  501  0.00000000000E+00  0.00000000000E+00  0.80517930538E+02  0.80517930538E+02  0.00000000000E+00 0.  1.
         21   -1    0    0  501  502 -0.00000000000E+00 -0.00000000000E+00 -0.23199077548E+02  0.23199077548E+02  0.00000000000E+00 0.  1.
         21    1    1    2  503  502  0.53760313306E+01  0.22221924253E+02 -0.15349012489E+02  0.27537389396E+02  0.00000000000E+00 0.  1.
         21    1    1    2  504  503 -0.53760313306E+01 -0.22221924253E+02  0.72667865479E+02  0.76179618689E+02  0.00000000000E+00 0.  1.
<mgrwt>
<rscale>  2 0.22862975E+02</rscale>
<asrwt>0</asrwt>
<pdfrwt beam="1">  1       21 0.12387374E-01 0.22862975E+02</pdfrwt>
<pdfrwt beam="2">  1       21 0.35690889E-02 0.22862975E+02</pdfrwt>
<totfact> 0.19854236E+07</totfact>
</mgrwt>
</event>
<event>
 4    1  0.4353697E+006  0.3112907E+02  0.7546771E-02  0.1585933E+00
         21   -1    0    0  502  501  0.00000000000E+00  0.00000000000E+00  0.47120695169E+02  0.47120695169E+02  0.00000000000E+00 0. -1.
         21   -1    0    0  504  502 -0.00000000000E+00 -0.00000000000E+00 -0.14404145529E+03  0.14404145529E+03  0.00000000000E+00 0.  1.
         21    1    1    2  503  501  0.19065857172E+02 -0.24607156992E+02  0.40035063509E+02  0.50713167867E+02  0.00000000000E+00 0. -1.
         21    1    1    2  504  503 -0.19065857172E+02  0.24607156992E+02 -0.13695582363E+03  0.14044898259E+03  0.00000000000E+00 0.  1.
<mgrwt>
<rscale>  2 0.31129071E+02</rscale>
<asrwt>0</asrwt>
<pdfrwt beam="1">  1       21 0.72493377E-02 0.31129071E+02</pdfrwt>
<pdfrwt beam="2">  1       21 0.22160224E-01 0.31129071E+02</pdfrwt>
<totfact> 0.24523244E+06</totfact>
</mgrwt>
</event>
<event>
 4    1  0.4353697E+006  0.2475120E+02  0.7546771E-02  0.1664601E+00
         21   -1    0    0  503  501  0.00000000000E+00  0.00000000000E+00  0.12336935645E+01  0.12336935645E+01  0.00000000000E+00 0.  1.
         21   -1    0    0  504  502 -0.00000000000E+00 -0.00000000000E+00 -0.49740074755E+03  0.49740074755E+03  0.00000000000E+00 0.  1.
         21    1    1    2  503  502  0.21743110833E+02  0.11826201562E+02 -0.23792783220E+03  0.23921177907E+03  0.00000000000E+00 0.  1.
         21    1    1    2  504  501 -0.21743110833E+02 -0.11826201562E+02 -0.25823922178E+03  0.25942266204E+03  0.00000000000E+00 0.  1.
<mgrwt>
<rscale>  2 0.24751200E+02</rscale>
<asrwt>0</asrwt>
<pdfrwt beam="1">  1       21 0.18979903E-03 0.24751200E+02</pdfrwt>
<pdfrwt beam="2">  1       21 0.76523183E-01 0.24751200E+02</pdfrwt>
<totfact> 0.57083968E+07</totfact>
</mgrwt>
</event>
<event>
 4    1  0.4353697E+006  0.2321687E+02  0.7546771E-02  0.1688019E+00
         21   -1    0    0  502  501  0.00000000000E+00  0.00000000000E+00  0.72470694448E+02  0.72470694448E+02  0.00000000000E+00 0.  1.
         21   -1    0    0  503  502 -0.00000000000E+00 -0.00000000000E+00 -0.75603919081E+01  0.75603919081E+01  0.00000000000E+00 0.  1.
         21    1    1    2  503  504  0.25540627766E+01 -0.23075955543E+02  0.37550535767E+02  0.44148224169E+02  0.00000000000E+00 0.  1.
         21    1    1    2  504  501 -0.25540627766E+01  0.23075955543E+02  0.27359766772E+02  0.35882862187E+02  0.00000000000E+00 0.  1.
<mgrwt>
<rscale>  2 0.23216868E+02</rscale>
<asrwt>0</asrwt>
<pdfrwt beam="1">  1       21 0.11149337E-01 0.23216868E+02</pdfrwt>
<pdfrwt beam="2">  1       21 0.11631373E-02 0.23216868E+02</pdfrwt>
<totfact> 0.13309676E+08</totfact>
</mgrwt>
</event>
<event>
 4    1  0.4353697E+006  0.2181192E+02  0.7546771E-02  0.1711525E+00
         21   -1    0    0  503  501  0.00000000000E+00  0.00000000000E+00  0.81657264717E+02  0.81657264717E+02  0.00000000000E+00 0.  1.
         21   -1    0    0  504  502 -0.00000000000E+00 -0.00000000000E+00 -0.67053322570E+01  0.67053322570E+01  0.00000000000E+00 0. -1.
         21    1    1    2  503  502 -0.17063557392E+02 -0.13586562502E+02  0.21479248501E+02  0.30612379647E+02  0.00000000000E+00 0. -1.
         21    1    1    2  504  501  0.17063557392E+02  0.13586562502E+02  0.53472683960E+02  0.57750217327E+02  0.00000000000E+00 0.  1.
<mgrwt>
<rscale>  2 0.21811916E+02</rscale>
<asrwt>0</asrwt>
<pdfrwt beam="1">  1       21 0.12562655E-01 0.21811916E+02</pdfrwt>
<pdfrwt beam="2">  1       21 0.10315896E-02 0.21811916E+02</pdfrwt>
<totfact> 0.12823164E+08</totfact>
</mgrwt>
</event>
<event>
 4    1  0.4353697E+006  0.2837297E+02  0.7546771E-02  0.1616802E+00
         21   -1    0    0  503  501  0.00000000000E+00  0.00000000000E+00  0.91404087508E+01  0.91404087508E+01  0.00000000000E+00 0.  1.
         21   -1    0    0  501  502 -0.00000000000E+00 -0.00000000000E+00 -0.31792019443E+03  0.31792019443E+03  0.00000000000E+00 0. -1.
         21    1    1    2  503  504 -0.12859991890E+02 -0.25291221418E+02 -0.15343869928E+02  0.32256156259E+02  0.00000000000E+00 0.  1.
         21    1    1    2  504  502  0.12859991890E+02  0.25291221418E+02 -0.29343591576E+03  0.29480444693E+03  0.00000000000E+00 0. -1.
<mgrwt>
<rscale>  2 0.28372967E+02</rscale>
<asrwt>0</asrwt>
<pdfrwt beam="1">  1       21 0.14062168E-02 0.28372967E+02</pdfrwt>
<pdfrwt beam="2">  1       21 0.48910797E-01 0.28372967E+02</pdfrwt>
<totfact> 0.73934663E+06</totfact>
</mgrwt>
</event>
<event>
 4    1  0.4353697E+006  0.2275336E+02  0.7546771E-02  0.1695539E+00
         21   -1    0    0  503  501  0.00000000000E+00  0.00000000000E+00  0.11500488806E+02  0.11500488806E+02  0.00000000000E+00 0. -1.
         21   -1    0    0  504  502 -0.00000000000E+00 -0.00000000000E+00 -0.45048841503E+02  0.45048841503E+02  0.00000000000E+00 0. -1.
         21    1    1    2  503  502  0.22476552984E+02 -0.35383796663E+01 -0.17527878441E+02  0.28721805085E+02  0.00000000000E+00 0. -1.
         21    1    1    2  504  501 -0.22476552984E+02  0.35383796663E+01 -0.16020474256E+02  0.27827525224E+02  0.00000000000E+00 0. -1.
<mgrwt>
<rscale>  2 0.22753364E+02</rscale>
<asrwt>0</asrwt>
<pdfrwt beam="1">  1       21 0.17693060E-02 0.22753364E+02</pdfrwt>
<pdfrwt beam="2">  1       21 0.69305910E-02 0.22753364E+02</pdfrwt>
<totfact> 0.15272277E+08</totfact>
</mgrwt>
</event>
<event>
 4    1  0.4353697E+006  0.2648690E+02  0.7546771E-02  0.1640520E+00
         21   -1    0    0  503  501  0.00000000000E+00  0.00000000000E+00  0.25153545804E+02  0.25153545804E+02  0.00000000000E+00 0. -1.
         21   -1    0    0  504  502 -0.00000000000E+00 -0.00000000000E+00 -0.35908008789E+02  0.35908008789E+02  0.00000000000E+00 0. -1.
         21    1    1    2  503  502  0.10396825940E+02  0.24361073998E+02 -0.19803371245E+02  0.33071580377E+02  0.00000000000E+00 0. -1.
         21    1    1    2  504  501 -0.10396825940E+02 -0.24361073998E+02  0.90489082592E+01  0.27989974217E+02  0.00000000000E+00 0. -1.
<mgrwt>
<rscale>  2 0.26486901E+02</rscale>
<asrwt>0</asrwt>
<pdfrwt beam="1">  1       21 0.38697763E-02 0.26486901E+02</pdfrwt>
<pdfrwt beam="2">  1       21 0.55243090E-02 0.26486901E+02</pdfrwt>
<totfact> 0.68070976E+07</totfact>
</mgrwt>
</event>
<event>
 4    1  0.4353697E+006  0.3673982E+02  0.7546771E-02  0.1533672E+00
         21   -1    0    0  503  501  0.00000000000E+00  0.00000000000E+00  0.59046433182E+02  0.59046433182E+02  0.00000000000E+00 0.  1.
         21   -1    0    0  501  502 -0.00000000000E+00 -0.00000000000E+00 -0.10995227755E+04  0.10995227755E+04  0.00000000000E+00 0. -1.
         21    1    1    2  503  504 -0.36729713700E+02 -0.86162019977E+00  0.52992839499E+02  0.64482984546E+02  0.00000000000E+00 0.  1.
         21    1    1    2  504  502  0.36729713700E+02  0.86162019977E+00 -0.10934691819E+04  0.10940862242E+04  0.00000000000E+00 0. -1.
<mgrwt>
<rscale>  2 0.36739818E+02</rscale>
<asrwt>0</asrwt>
<pdfrwt beam="1">  1       21 0.90840674E-02 0.36739818E+02</pdfrwt>
<pdfrwt beam="2">  1       21 0.16915734E+00 0.36739818E+02</pdfrwt>
<totfact> 0.25015211E+04</totfact>
</mgrwt>
</event>
<event>
 4    1  0.4353697E+006  0.2458005E+02  0.7546771E-02  0.1667108E+00
         21   -1    0    0  503  501  0.00000000000E+00  0.00000000000E+00  0.40489735745E+01  0.40489735745E+01  0.00000000000E+00 0. -1.
         21   -1    0    0  501  502 -0.00000000000E+00 -0.00000000000E+00 -0.21628735622E+03  0.21628735622E+03  0.00000000000E+00 0.  1.
         21    1    1    2  503  504  0.70941650020E+01  0.23534048678E+02 -0.44770753351E+02  0.51074445468E+02  0.00000000000E+00 0. -1.
         21    1    1    2  504  502 -0.70941650020E+01 -0.23534048678E+02 -0.16746762930E+03  0.16926188433E+03  0.00000000000E+00 0.  1.
<mgrwt>
<rscale>  2 0.24580045E+02</rscale>
<asrwt>0</asrwt>
<pdfrwt beam="1">  1       21 0.62291889E-03 0.24580045E+02</pdfrwt>
<pdfrwt beam="2">  1       21 0.33274984E-01 0.24580045E+02</pdfrwt>
<totfact> 0.50987542E+07</totfact>
</mgrwt>
</event>
<event>
 4    1  0.4353697E+006  0.2228649E+02  0.7546771E-02  0.1703344E+00
         21   -1    0    0  504  501  0.00000000000E+00  0.00000000000E+00  0.53146813339E+02  0.53146813339E+02  0.00000000000E+00 0. -1.
         21   -1    0    0  501  502 -0.00000000000E+00 -0.00000000000E+00 -0.37795432295E+02  0.37795432295E+02  0.00000000000E+00 0. -1.
         21    1    1    2  503  502 -0.79701599653E+01  0.20812592428E+02 -0.31775133327E+02  0.38811680605E+02  0.00000000000E+00 0. -1.
         21    1    1    2  504  503  0.79701599653E+01 -0.20812592428E+02  0.47126514371E+02  0.52130565029E+02  0.00000000000E+00 0. -1.
<mgrwt>
<rscale>  2 0.22286486E+02</rscale>
<asrwt>0</asrwt>
<pdfrwt beam="1">  1       21 0.81764328E-02 0.22286486E+02</pdfrwt>
<pdfrwt beam="2">  1       21 0.58146819E-02 0.22286486E+02</pdfrwt>
<totfact> 0.18112934E+07</totfact>
</mgrwt>
</event>
<event>
 4    1  0.4353697E+006  0.2045476E+02  0.7546771E-02  0.1736433E+00
         21   -1    0    0  502  501  0.00000000000E+00  0.00000000000E+00  0.96702186841E+01  0.96702186841E+01  0.00000000000E+00 0.  1.
         21   -1    0    0  504  502 -0.00000000000E+00 -0.00000000000E+00 -0.67801906130E+02  0.67801906130E+02  0.00000000000E+00 0.  1.
         21    1    1    2  503  501  0.14844587485E+02 -0.14072501826E+02 -0.57639817570E+01  0.21251366331E+02  0.00000000000E+00 0.  1.
         21    1    1    2  504  503 -0.14844587485E+02  0.14072501826E+02 -0.52367705689E+02  0.56220758482E+02  0.00000000000E+00 0.  1.
<mgrwt>
<rscale>  2 0.20454757E+02</rscale>
<asrwt>0</asrwt>
<pdfrwt beam="1">  1       21 0.14877260E-02 0.20454757E+02</pdfrwt>
<pdfrwt beam="2">  1       21 0.10431062E-01 0.20454757E+02</pdfrwt>
<totfact> 0.98749622E+07</totfact>
</mgrwt>
</event>
<event>
 4    1  0.4353697E+006  0.2072686E+02  0.7546771E-02  0.1731248E+00
         21   -1    0    0  503  501  0.00000000000E+00  0.00000000000E+00  0.21431444013E+03  0.21431444013E+03  0.00000000000E+00 0. -1.
         21   -1    0    0  504  502 -0.00000000000E+00 -0.00000000000E+00 -0.74584590393E+02  0.74584590393E+02  0.00000000000E+00 0.  1.
         21    1    1    2  503  502 -0.70297417742E+01 -0.19498341134E+02  0.21236009923E+03  0.21336919722E+03  0.00000000000E+00 0. -1.
         21    1    1    2  504  501  0.70297417742E+01  0.19498341134E+02 -0.72630249497E+02  0.75529833300E+02  0.00000000000E+00 0.  1.
<mgrwt>
<rscale>  2 0.20726856E+02</rscale>
<asrwt>0</asrwt>
<pdfrwt beam="1">  1       21 0.32971452E-01 0.20726856E+02</pdfrwt>
<pdfrwt beam="2">  1       21 0.11474552E-01 0.20726856E+02</pdfrwt>
<totfact> 0.53994985E+05</totfact>
</mgrwt>
</event>
<event>
 4    1  0.4353697E+006  0.2306776E+02  0.7546771E-02  0.1690414E+00
         21   -1    0    0  503  501  0.00000000000E+00  0.00000000000E+00  0.73974623390E+02  0.73974623390E+02  0.00000000000E+00 0.  1.
         21   -1    0    0  504  502 -0.00000000000E+00 -0.00000000000E+00 -0.11501335831E+02  0.11501335831E+02  0.00000000000E+00 0. -1.
         21    1    1    2  503  502 -0.19366265838E+02  0.12532736945E+02  0.57393132156E+02  0.61855423097E+02  0.00000000000E+00 0.  1.
         21    1    1    2  504  501  0.19366265838E+02 -0.12532736945E+02  0.50801554036E+01  0.23620536124E+02  0.00000000000E+00 0. -1.
<mgrwt>
<rscale>  2 0.23067764E+02</rscale>
<asrwt>0</asrwt>
<pdfrwt beam="1">  1       21 0.11380711E-01 0.23067764E+02</pdfrwt>
<pdfrwt beam="2">  1       21 0.17694363E-02 0.23067764E+02</pdfrwt>
<totfact> 0.67896516E+07</totfact>
</mgrwt>
</event>
<event>
 4    1  0.4353697E+006  0.2072548E+02  0.7546771E-02  0.1731274E+00
         21   -1    0    0  504  501  0.00000000000E+00  0.00000000000E+00  0.46887849693E+03  0.46887849693E+03  0.00000000000E+00 0. -1.
         21   -1    0    0  503  502 -0.00000000000E+00 -0.00000000000E+00 -0.44784459897E+02  0.44784459897E+02  0.00000000000E+00 0.  1.
         21    1    1    2  503  501 -0.17806213824E+02  0.10605859849E+02 -0.42144009543E+02  0.46964487161E+02  0.00000000000E+00 0.  1.
         21    1    1    2  504  502  0.17806213824E+02 -0.10605859849E+02  0.46623804658E+03  0.46669846967E+03  0.00000000000E+00 0. -1.
<mgrwt>
<rscale>  2 0.20725480E+02</rscale>
<asrwt>0</asrwt>
<pdfrwt beam="1">  1       21 0.72135150E-01 0.20725480E+02</pdfrwt>
<pdfrwt beam="2">  1       21 0.68899172E-02 0.20725480E+02</pdfrwt>
<totfact> 0.27394454E+05</totfact>
</mgrwt>
</event>
<event>
 4    1  0.4353697E+006  0.2033269E+02  0.7546771E-02  0.1738792E+00
         21   -1    0    0  502  501  0.00000000000E+00  0.00000000000E+00  0.83526631443E+01  0.83526631443E+01  0.00000000000E+00 0. -1.
         21   -1    0    0  503  502 -0.00000000000E+00 -0.00000000000E+00 -0.44351625405E+03  0.44351625405E+03  0.00000000000E+00 0.  1.
         21    1    1    2  503  504  0.17592709117E+02  0.10193855416E+02 -0.43053654292E+03  0.43101639515E+03  0.00000000000E+00 0.  1.
         21    1    1    2  504  501 -0.17592709117E+02 -0.10193855416E+02 -0.46270479843E+01  0.20852522038E+02  0.00000000000E+00 0. -1.
<mgrwt>
<rscale>  2 0.20332686E+02</rscale>
<asrwt>0</asrwt>
<pdfrwt beam="1">  1       21 0.12850252E-02 0.20332686E+02</pdfrwt>
<pdfrwt beam="2">  1       21 0.68233267E-01 0.20332686E+02</pdfrwt>
<totfact> 0.41545588E+06</totfact>
</mgrwt>
</event>
<event>
 4    1  0.4353697E+006  0.2905129E+02  0.7546771E-02  0.1608818E+00
         21   -1    0    0  504  501  0.00000000000E+00  0.00000000000E+00  0.41866618058E+03  0.41866618058E+03  0.00000000000E+00 0. -1.
         21   -1    0    0  501  502 -0.00000000000E+00 -0.00000000000E+00 -0.79129024867E+01  0.79129024867E+01  0.00000000000E+00 0. -1.
         21    1    1    2  503  502 -0.27407598190E+02  0.96333325568E+01  0.21249276988E+02  0.35993184177E+02  0.00000000000E+00 0. -1.
         21    1    1    2  504  503  0.27407598190E+02 -0.96333325568E+01  0.38950400111E+03  0.39058589889E+03  0.00000000000E+00 0. -1.
<mgrwt>
<rscale>  2 0.29051291E+02</rscale>
<asrwt>0</asrwt>
<pdfrwt beam="1">  1       21 0.64410164E-01 0.29051291E+02</pdfrwt>
<pdfrwt beam="2">  1       21 0.12173699E-02 0.29051291E+02</pdfrwt>
<totfact> 0.53340484E+06</totfact>
</mgrwt>
</event>
<event>
 4    1  0.4353697E+006  0.3244584E+02  0.7546771E-02  0.1572527E+00
         21   -1    0    0  503  501  0.00000000000E+00  0.00000000000E+00  0.56895031459E+02  0.56895031459E+02  0.00000000000E+00 0. -1.
         21   -1    0    0  504  502 -0.00000000000E+00 -0.00000000000E+00 -0.97828027858E+02  0.97828027858E+02  0.00000000000E+00 0. -1.
         21    1    1    2  503  502  0.24469628621E+02  0.21306568584E+02 -0.90128882033E+02  0.95791168519E+02  0.00000000000E+00 0. -1.
         21    1    1    2  504  501 -0.24469628621E+02 -0.21306568584E+02  0.49195885634E+02  0.58931890798E+02  0.00000000000E+00 0. -1.
<mgrwt>
<rscale>  2 0.32445841E+02</rscale>
<asrwt>0</asrwt>
<pdfrwt beam="1">  1       21 0.87530819E-02 0.32445841E+02</pdfrwt>
<pdfrwt beam="2">  1       21 0.15050466E-01 0.32445841E+02</pdfrwt>
<totfact> 0.35567363E+06</totfact>
</mgrwt>
</event>
<event>
 4    1  0.4353697E+006  0.2108142E+02  0.7546771E-02  0.1724640E+00
         21   -1    0    0  503  501  0.00000000000E+00  0.00000000000E+00  0.18908256857E+03  0.18908256857E+03  0.00000000000E+00 0.  1.
         21   -1    0    0  504  502 -0.00000000000E+00 -0.00000000000E+00 -0.66525874338E+01  0.66525874338E+01  0.00000000000E+00 0.  1.
         21    1    1    2  503  502 -0.19063318537E+02  0.90008880417E+01  0.16991712167E+03  0.17121990052E+03  0.00000000000E+00 0.  1.
         21    1    1    2  504  501  0.19063318537E+02 -0.90008880417E+01  0.12512859467E+02  0.24515255479E+02  0.00000000000E+00 0.  1.
<mgrwt>
<rscale>  2 0.21081416E+02</rscale>
<asrwt>0</asrwt>
<pdfrwt beam="1">  1       21 0.29089622E-01 0.21081416E+02</pdfrwt>
<pdfrwt beam="2">  1       21 0.10234751E-02 0.21081416E+02</pdfrwt>
<totfact> 0.29956213E+07</totfact>
</mgrwt>
</event>
<event>
 4    1  0.4353697E+006  0.3529888E+02  0.7546771E-02  0.1545962E+00
         21   -1    0    0  503  501  0.00000000000E+00  0.00000000000E+00  0.74545337944E+03  0.74545337944E+03  0.00000000000E+00 0. -1.
         21   -1    0    0  504  502 -0.00000000000E+00 -0.00000000000E+00 -0.17810307921E+01  0.17810307921E+01  0.00000000000E+00 0. -1.
         21    1    1    2  503  502 -0.11645508090E+02  0.33322563990E+02  0.27917516780E+03  0.28139791301E+03  0.00000000000E+00 0. -1.
         21    1    1    2  504  501  0.11645508090E+02 -0.33322563990E+02  0.46449718084E+03  0.46583649722E+03  0.00000000000E+00 0. -1.
<mgrwt>
<rscale>  2 0.35298883E+02</rscale>
<asrwt>0</asrwt>
<pdfrwt beam="1">  1       21 0.11468489E+00 0.35298883E+02</pdfrwt>
<pdfrwt beam="2">  1       21 0.27400533E-03 0.35298883E+02</pdfrwt>
<totfact> 0.14669293E+07</totfact>
</mgrwt>
</event>
<event>
 4    1  0.4353697E+006  0.2375825E+02  0.7546771E-02  0.1679506E+00
         21   -1    0    0  502  501  0.00000000000E+00  0.00000000000E+00  0.28437318082E+03  0.28437318082E+03  0.00000000000E+00 0.  1.
         21   -1    0    0  503  502 -0.00000000000E+00 -0.00000000000E+00 -0.72684870814E+01  0.72684870814E+01  0.00000000000E+00 0. -1.
         21    1    1    2  503  504 -0.15659304374E+02  0.17867304177E+02  0.14226420069E+02  0.27691973566E+02  0.00000000000E+00 0. -1.
         21    1    1    2  504  501  0.15659304374E+02 -0.17867304177E+02  0.26287827367E+03  0.26394969434E+03  0.00000000000E+00 0.  1.
<mgrwt>
<rscale>  2 0.23758249E+02</rscale>
<asrwt>0</asrwt>
<pdfrwt beam="1">  1       21 0.43749712E-01 0.23758249E+02</pdfrwt>
<pdfrwt beam="2">  1       21 0.11182290E-02 0.23758249E+02</pdfrwt>
<totfact> 0.12612152E+07</totfact>
</mgrwt>
</event>
<event>
 4    1  0.4353697E+006  0.2140133E+02  0.7546771E-02  0.1718816E+00
         21   -1    0    0  503  501  0.00000000000E+00  0.00000000000E+00  0.49859707081E+03  0.49859707081E+03  0.00000000000E+00 0.  1.
         21   -1    0    0  504  502 -0.00000000000E+00 -0.00000000000E+00 -0.83893501718E+01  0.83893501718E+01  0.00000000000E+00 0.  1.
         21    1    1    2  503  502 -0.18093324915E+02 -0.11430152236E+02  0.48431640762E+03  0.48478902574E+03  0.00000000000E+00 0.  1.
         21    1    1    2  504  501  0.18093324915E+02  0.11430152236E+02  0.58913130219E+01  0.22197395247E+02  0.00000000000E+00 0.  1.
<mgrwt>
<rscale>  2 0.21401327E+02</rscale>
<asrwt>0</asrwt>
<pdfrwt beam="1">  1       21 0.76707219E-01 0.21401327E+02</pdfrwt>
<pdfrwt beam="2">  1       21 0.12906696E-02 0.21401327E+02</pdfrwt>
<totfact> 0.32696551E+06</totfact>
</mgrwt>
</event>
<event>
 4    1  0.4353697E+006  0.2053282E+02  0.7546771E-02  0.1734935E+00
         21   -1    0    0  504  501  0.00000000000E+00  0.00000000000E+00  0.22081469642E+03  0.22081469642E+03  0.00000000000E+00 0.  1.
         21   -1    0    0  503  502 -0.00000000000E+00 -0.00000000000E+00 -0.34765341062E+02  0.34765341062E+02  0.00000000000E+00 0. -1.
         21    1    1    2  503  501  0.20528949441E+02  0.39886124265E+00  0.21725609557E+03  0.21822421478E+03  0.00000000000E+00 0.  1.
         21    1    1    2  504  502 -0.20528949441E+02 -0.39886124265E+00 -0.31206740208E+02  0.37355822703E+02  0.00000000000E+00 0. -1.
<mgrwt>
<rscale>  2 0.20532824E+02</rscale>
<asrwt>0</asrwt>
<pdfrwt beam="1">  1       21 0.33971491E-01 0.20532824E+02</pdfrwt>
<pdfrwt beam="2">  1       21 0.53485141E-02 0.20532824E+02</pdfrwt>
<totfact> 0.17634244E+06</totfact>
</mgrwt>
</event>
<event>
 4    1  0.4353697E+006  0.2034407E+02  0.7546771E-02  0.1738571E+00
         21   -1    0    0  504  501  0.00000000000E+00  0.00000000000E+00  0.55174795496E+01  0.55174795496E+01  0.00000000000E+00 0.  1.
         21   -1    0    0  503  502 -0.00000000000E+00 -0.00000000000E+00 -0.12506742225E+03  0.12506742225E+03  0.00000000000E+00 0.  1.
         21    1    1    2  503  501  0.14786351285E+02  0.13973014791E+02 -0.18468968289E+02  0.27476974293E+02  0.00000000000E+00 0.  1.
         21    1    1    2  504  502 -0.14786351285E+02 -0.13973014791E+02 -0.10108097441E+03  0.10310792750E+03  0.00000000000E+00 0.  1.
<mgrwt>
<rscale>  2 0.20344074E+02</rscale>
<asrwt>0</asrwt>
<pdfrwt beam="1">  1       21 0.84884305E-03 0.20344074E+02</pdfrwt>
<pdfrwt beam="2">  1       21 0.19241141E-01 0.20344074E+02</pdfrwt>
<totfact> 0.81439344E+07</totfact>
</mgrwt>
</event>
<event>
 4    1  0.4353697E+006  0.2770179E+02  0.7546771E-02  0.1624976E+00
         21   -1    0    0  504  501  0.00000000000E+00  0.00000000000E+00  0.69960843567E+02  0.69960843567E+02  0.00000000000E+00 0. -1.
         21   -1    0    0  503  502 -0.00000000000E+00 -0.00000000000E+00 -0.10971951191E+02  0.10971951191E+02  0.00000000000E+00 0. -1.
         21    1    1    2  503  501  0.27653773616E+02  0.16303391954E+01  0.28812870704E+02  0.39969622457E+02  0.00000000000E+00 0. -1.
         21    1    1    2  504  502 -0.27653773616E+02 -0.16303391954E+01  0.30176021671E+02  0.40963172301E+02  0.00000000000E+00 0. -1.
<mgrwt>
<rscale>  2 0.27701791E+02</rscale>
<asrwt>0</asrwt>
<pdfrwt beam="1">  1       21 0.10763206E-01 0.27701791E+02</pdfrwt>
<pdfrwt beam="2">  1       21 0.16879925E-02 0.27701791E+02</pdfrwt>
<totfact> 0.83973501E+07</totfact>
</mgrwt>
</event>
<event>
 4    1  0.4353697E+006  0.2025761E+02  0.7546771E-02  0.1740253E+00
         21   -1    0    0  503  501  0.00000000000E+00  0.00000000000E+00  0.11838651183E+03  0.11838651183E+03  0.00000000000E+00 0.  1.
         21   -1    0    0  504  502 -0.00000000000E+00 -0.00000000000E+00 -0.41230062964E+01  0.41230062964E+01  0.00000000000E+00 0.  1.
         21    1    1    2  503  502 -0.17994409327E+02  0.93044053347E+01  0.32686343571E+02  0.38454749794E+02  0.00000000000E+00 0.  1.
         21    1    1    2  504  501  0.17994409327E+02 -0.93044053347E+01  0.81577161966E+02  0.84054768337E+02  0.00000000000E+00 0.  1.
<mgrwt>
<rscale>  2 0.20257609E+02</rscale>
<asrwt>0</asrwt>
<pdfrwt beam="1">  1       21 0.18213307E-01 0.20257609E+02</pdfrwt>
<pdfrwt beam="2">  1       21 0.63430875E-03 0.20257609E+02</pdfrwt>
<totfact> 0.13773255E+08</totfact>
</mgrwt>
</event>
<event>
 4    1  0.4353697E+006  0.2294310E+02  0.7546771E-02  0.1692434E+00
         21   -1    0    0  503  501  0.00000000000E+00  0.00000000000E+00  0.34108772648E+03  0.34108772648E+03  0.00000000000E+00 0. -1.
         21   -1    0    0  504  502 -0.00000000000E+00 -0.00000000000E+00 -0.37357583016E+01  0.37357583016E+01  0.00000000000E+00 0. -1.
         21    1    1    2  503  502 -0.13128025068E+02 -0.18815976091E+02  0.36592841793E+02  0.43190532168E+02  0.00000000000E+00 0. -1.
         21    1    1    2  504  501  0.13128025068E+02  0.18815976091E+02  0.30075912638E+03  0.30163295261E+03  0.00000000000E+00 0. -1.
<mgrwt>
<rscale>  2 0.22943104E+02</rscale>
<asrwt>0</asrwt>
<pdfrwt beam="1">  1       21 0.52475010E-01 0.22943104E+02</pdfrwt>
<pdfrwt beam="2">  1       21 0.57473232E-03 0.22943104E+02</pdfrwt>
<totfact> 0.23816662E+07</totfact>
</mgrwt>
</event>
<event>
 4    1  0.4353697E+006  0.2291906E+02  0.7546771E-02  0.1692826E+00
         21   -1    0    0  504  501  0.00000000000E+00  0.00000000000E+00  0.10072546556E+03  0.10072546556E+03  0.00000000000E+00 0. -1.
         21   -1    0    0  503  502 -0.00000000000E+00 -0.00000000000E+00 -0.23857834609E+02  0.23857834609E+02  0.00000000000E+00 0.  1.
         21    1    1    2  503  501 -0.23563177225E+01  0.22797607018E+02 -0.16630509314E+02  0.28317078928E+02  0.00000000000E+00 0.  1.
         21    1    1    2  504  502  0.23563177225E+01 -0.22797607018E+02  0.93498140267E+02  0.96266221243E+02  0.00000000000E+00 0. -1.
<mgrwt>
<rscale>  2 0.22919056E+02</rscale>
<asrwt>0</asrwt>
<pdfrwt beam="1">  1       21 0.15496225E-01 0.22919056E+02</pdfrwt>
<pdfrwt beam="2">  1       21 0.36704361E-02 0.22919056E+02</pdfrwt>
<totfact> 0.13015421E+07</totfact>
</mgrwt>
</event>
<event>
 4    1  0.4353697E+006  0.2311587E+02  0.7546771E-02  0.1689639E+00
         21   -1    0    0  504  501  0.00000000000E+00  0.00000000000E+00  0.23176374857E+02  0.23176374857E+02  0.00000000000E+00 0. -1.
         21   -1    0    0  503  502 -0.00000000000E+00 -0.00000000000E+00 -0.28615980776E+02  0.28615980776E+02  0.00000000000E+00 0. -1.
         21    1    1    2  503  501  0.11147377934E+02 -0.20250421197E+02 -0.14135077790E+02  0.27095092131E+02  0.00000000000E+00 0. -1.
         21    1    1    2  504  502 -0.11147377934E+02  0.20250421197E+02  0.86954718710E+01  0.24697263503E+02  0.00000000000E+00 0. -1.
<mgrwt>
<rscale>  2 0.23115873E+02</rscale>
<asrwt>0</asrwt>
<pdfrwt beam="1">  1       21 0.35655961E-02 0.23115873E+02</pdfrwt>
<pdfrwt beam="2">  1       21 0.44024586E-02 0.23115873E+02</pdfrwt>
<totfact> 0.10725311E+08</totfact>
</mgrwt>
</event>
<event>
 4    1  0.4353697E+006  0.2979992E+02  0.7546771E-02  0.1600311E+00
         21   -1    0    0  502  501  0.00000000000E+00  0.00000000000E+00  0.78492469263E+03  0.78492469263E+03  0.00000000000E+00 0.  1.
         21   -1    0    0  504  502 -0.00000000000E+00 -0.00000000000E+00 -0.70548926983E+01  0.70548926983E+01  0.00000000000E+00 0.  1.
         21    1    1    2  503  501  0.98532449092E+00 -0.29783625993E+02  0.75178650408E+03  0.75237688890E+03  0.00000000000E+00 0.  1.
         21    1    1    2  504  503 -0.98532449092E+00  0.29783625993E+02  0.26083295856E+02  0.39602696427E+02  0.00000000000E+00 0.  1.
<mgrwt>
<rscale>  2 0.29799920E+02</rscale>
<asrwt>0</asrwt>
<pdfrwt beam="1">  1       21 0.12075758E+00 0.29799920E+02</pdfrwt>
<pdfrwt beam="2">  1       21 0.10853687E-02 0.29799920E+02</pdfrwt>
<totfact> 0.16359096E+06</totfact>
</mgrwt>
</event>
<event>
 4    1  0.4353697E+006  0.2674095E+02  0.7546771E-02  0.1637186E+00
         21   -1    0    0  503  501  0.00000000000E+00  0.00000000000E+00  0.39219211104E+01  0.39219211104E+01  0.00000000000E+00 0. -1.
         21   -1    0    0  504  502 -0.00000000000E+00 -0.00000000000E+00 -0.74405183971E+03  0.74405183971E+03  0.00000000000E+00 0. -1.
         21    1    1    2  503  502 -0.23073382656E+02 -0.13516559291E+02 -0.45115388185E+02  0.52444986542E+02  0.00000000000E+00 0. -1.
         21    1    1    2  504  501  0.23073382656E+02  0.13516559291E+02 -0.69501453041E+03  0.69552877428E+03  0.00000000000E+00 0. -1.
<mgrwt>
<rscale>  2 0.26740949E+02</rscale>
<asrwt>0</asrwt>
<pdfrwt beam="1">  1       21 0.60337272E-03 0.26740949E+02</pdfrwt>
<pdfrwt beam="2">  1       21 0.11446947E+00 0.26740949E+02</pdfrwt>
<totfact> 0.44214455E+06</totfact>
</mgrwt>
</event>
<event>
 4    1  0.4353697E+006  0.4269271E+02  0.7546771E-02  0.1489282E+00
         21   -1    0    0  502  501  0.00000000000E+00  0.00000000000E+00  0.81198286531E+02  0.81198286531E+02  0.00000000000E+00 0.  1.
         21   -1    0    0  504  502 -0.00000000000E+00 -0.00000000000E+00 -0.77584168021E+02  0.77584168021E+02  0.00000000000E+00 0.  1.
         21    1    1    2  503  501  0.28340258947E+01  0.42598544778E+02  0.68735038942E+02  0.80914604975E+02  0.00000000000E+00 0.  1.
         21    1    1    2  504  503 -0.28340258947E+01 -0.42598544778E+02 -0.65120920431E+02  0.77867849577E+02  0.00000000000E+00 0.  1.
<mgrwt>
<rscale>  2 0.42692713E+02</rscale>
<asrwt>0</asrwt>
<pdfrwt beam="1">  1       21 0.12492044E-01 0.42692713E+02</pdfrwt>
<pdfrwt beam="2">  1       21 0.11936026E-01 0.42692713E+02</pdfrwt>
<totfact> 0.29892821E+06</totfact>
</mgrwt>
</event>
<event>
 4    1  0.4353697E+006  0.2153718E+02  0.7546771E-02  0.1716381E+00
         21   -1    0    0  503  501  0.00000000000E+00  0.00000000000E+00  0.21176137958E+03  0.21176137958E+03  0.00000000000E+00 0.  1.
         21   -1    0    0  504  502 -0.00000000000E+00 -0.00000000000E+00 -0.55784549544E+02  0.55784549544E+02  0.00000000000E+00 0.  1.
         21    1    1    2  503  502 -0.15118520340E+02  0.15338861524E+02 -0.53131881070E+02  0.57331031006E+02  0.00000000000E+00 0.  1.
         21    1    1    2  504  501  0.15118520340E+02 -0.15338861524E+02  0.20910871111E+03  0.21021489812E+03  0.00000000000E+00 0.  1.
<mgrwt>
<rscale>  2 0.21537185E+02</rscale>
<asrwt>0</asrwt>
<pdfrwt beam="1">  1       21 0.32578673E-01 0.21537185E+02</pdfrwt>
<pdfrwt beam="2">  1       21 0.85822385E-02 0.21537185E+02</pdfrwt>
<totfact> 0.89346816E+05</totfact>
</mgrwt>
</event>
<event>
 4    1  0.4353697E+006  0.2423815E+02  0.7546771E-02  0.1672192E+00
         21   -1    0    0  504  501  0.00000000000E+00  0.00000000000E+00  0.48522175560E+00  0.48522175560E+00  0.00000000000E+00 0. -1.
         21   -1    0    0  503  502 -0.00000000000E+00 -0.00000000000E+00 -0.12522459082E+04  0.12522459082E+04  0.00000000000E+00 0. -1.
         21    1    1    2  503  501  0.12370560432E+02  0.20843630707E+02 -0.51187459621E+03  0.51244813392E+03  0.00000000000E+00 0. -1.
         21    1    1    2  504  502 -0.12370560432E+02 -0.20843630707E+02 -0.73988609028E+03  0.74028299608E+03  0.00000000000E+00 0. -1.
<mgrwt>
<rscale>  2 0.24238146E+02</rscale>
<asrwt>0</asrwt>
<pdfrwt beam="1">  1       21 0.74650036E-04 0.24238146E+02</pdfrwt>
<pdfrwt beam="2">  1       21 0.19265184E+00 0.24238146E+02</pdfrwt>
<totfact> 0.26115694E+07</totfact>
</mgrwt>
</event>
<event>
 4    1  0.4353697E+006  0.2670084E+02  0.7546771E-02  0.1637709E+00
         21   -1    0    0  502  501  0.00000000000E+00  0.00000000000E+00  0.32241248741E+03  0.32241248741E+03  0.00000000000E+00 0.  1.
         21   -1    0    0  503  502 -0.00000000000E+00 -0.00000000000E+00 -0.33570055374E+01  0.33570055374E+01  0.00000000000E+00 0.  1.
         21    1    1    2  503  504  0.88915036190E+01 -0.25176890859E+02  0.64368638671E+02  0.69686844628E+02  0.00000000000E+00 0.  1.
         21    1    1    2  504  501 -0.88915036190E+01  0.25176890859E+02  0.25468684320E+03  0.25608264832E+03  0.00000000000E+00 0.  1.
<mgrwt>
<rscale>  2 0.26700837E+02</rscale>
<asrwt>0</asrwt>
<pdfrwt beam="1">  1       21 0.49601896E-01 0.26700837E+02</pdfrwt>
<pdfrwt beam="2">  1       21 0.51646265E-03 0.26700837E+02</pdfrwt>
<totfact> 0.32134731E+07</totfact>
</mgrwt>
</event>
<event>
 4    1  0.4353697E+006  0.4317675E+02  0.7546771E-02  0.1486056E+00
         21   -1    0    0  503  501  0.00000000000E+00  0.00000000000E+00  0.15640894446E+04  0.15640894446E+04  0.00000000000E+00 0. -1.
         21   -1    0    0  504  502 -0.00000000000E+00 -0.00000000000E+00 -0.13130896471E+01  0.13130896471E+01  0.00000000000E+00 0. -1.
         21    1    1    2  503  502  0.31538228381E+02 -0.29488510075E+02  0.54360088889E+03  0.54531289960E+03  0.00000000000E+00 0. -1.
         21    1    1    2  504  501 -0.31538228381E+02  0.29488510075E+02  0.10191754661E+04  0.10200896347E+04  0.00000000000E+00 0. -1.
<mgrwt>
<rscale>  2 0.43176754E+02</rscale>
<asrwt>0</asrwt>
<pdfrwt beam="1">  1       21 0.24062765E+00 0.43176754E+02</pdfrwt>
<pdfrwt beam="2">  1       21 0.20201504E-03 0.43176754E+02</pdfrwt>
<totfact> 0.35205196E+06</totfact>
</mgrwt>
</event>
<event>
 4    1  0.4353697E+006  0.2528233E+02  0.7546771E-02  0.1656979E+00
         21   -1    0    0  504  501  0.00000000000E+00  0.00000000000E+00  0.13183102711E+03  0.13183102711E+03  0.00000000000E+00 0. -1.
         21   -1    0    0  503  502 -0.00000000000E+00 -0.00000000000E+00 -0.83361703110E+01  0.83361703110E+01  0.00000000000E+00 0. -1.
         21    1    1    2  503  501  0.24058505275E+02  0.77707612780E+01  0.16416526492E+02  0.30144630516E+02  0.00000000000E+00 0. -1.
         21    1    1    2  504  502 -0.24058505275E+02 -0.77707612780E+01  0.10707833031E+03  0.11002256691E+03  0.00000000000E+00 0. -1.
<mgrwt>
<rscale>  2 0.25282334E+02</rscale>
<asrwt>0</asrwt>
<pdfrwt beam="1">  1       21 0.20281695E-01 0.25282334E+02</pdfrwt>
<pdfrwt beam="2">  1       21 0.12824878E-02 0.25282334E+02</pdfrwt>
<totfact> 0.42250186E+07</totfact>
</mgrwt>
</event>
<event>
 4    1  0.4353697E+006  0.2293658E+02  0.7546771E-02  0.1692540E+00
         21   -1    0    0  504  501  0.00000000000E+00  0.00000000000E+00  0.14741260483E+02  0.14741260483E+02  0.00000000000E+00 0.  1.
         21   -1    0    0  503  502 -0.00000000000E+00 -0.00000000000E+00 -0.80937957079E+02  0.80937957079E+02  0.00000000000E+00 0.  1.
         21    1    1    2  503  501  0.14392926479E+02  0.17858617684E+02 -0.68868471687E+02  0.72587553691E+02  0.00000000000E+00 0.  1.
         21    1    1    2  504  502 -0.14392926479E+02 -0.17858617684E+02  0.26717750917E+01  0.23091663872E+02  0.00000000000E+00 0.  1.
<mgrwt>
<rscale>  2 0.22936577E+02</rscale>
<asrwt>0</asrwt>
<pdfrwt beam="1">  1       21 0.22678863E-02 0.22936577E+02</pdfrwt>
<pdfrwt beam="2">  1       21 0.12451993E-01 0.22936577E+02</pdfrwt>
<totfact> 0.39849777E+07</totfact>
</mgrwt>
</event>
<event>
 4    1  0.4353697E+006  0.2189929E+02  0.7546771E-02  0.1710000E+00
         21   -1    0    0  503  501  0.00000000000E+00  0.00000000000E+00  0.15546576412E+02  0.15546576412E+02  0.00000000000E+00 0.  1.
         21   -1    0    0  504  502 -0.00000000000E+00 -0.00000000000E+00 -0.47412097028E+02  0.47412097028E+02  0.00000000000E+00 0. -1.
         21    1    1    2  503  502 -0.19869273707E+02 -0.92081965621E+01 -0.34539335765E+02  0.40896755821E+02  0.00000000000E+00 0. -1.
         21    1    1    2  504  501  0.19869273707E+02  0.92081965621E+01  0.26738151494E+01  0.22061917619E+02  0.00000000000E+00 0.  1.
<mgrwt>
<rscale>  2 0.21899290E+02</rscale>
<asrwt>0</asrwt>
<pdfrwt beam="1">  1       21 0.23917810E-02 0.21899290E+02</pdfrwt>
<pdfrwt beam="2">  1       21 0.72941687E-02 0.21899290E+02</pdfrwt>
<totfact> 0.87540138E+07</totfact>
</mgrwt>
</event>
<event>
 4    1  0.4353697E+006  0.2260520E+02  0.7546771E-02  0.1697991E+00
         21   -1    0    0  503  501  0.00000000000E+00  0.00000000000E+00  0.39879826080E+02  0.39879826080E+02  0.00000000000E+00 0.  1.
         21   -1    0    0  504  502 -0.00000000000E+00 -0.00000000000E+00 -0.13149165346E+03  0.13149165346E+03  0.00000000000E+00 0. -1.
         21    1    1    2  503  502 -0.40767183983E+00 -0.22601518762E+02 -0.12720979098E+03  0.12920265387E+03  0.00000000000E+00 0. -1.
         21    1    1    2  504  501  0.40767183983E+00  0.22601518762E+02  0.35597963593E+02  0.42168825674E+02  0.00000000000E+00 0.  1.
<mgrwt>
<rscale>  2 0.22605195E+02</rscale>
<asrwt>0</asrwt>
<pdfrwt beam="1">  1       21 0.61353578E-02 0.22605195E+02</pdfrwt>
<pdfrwt beam="2">  1       21 0.20229485E-01 0.22605195E+02</pdfrwt>
<totfact> 0.36258588E+06</totfact>
</mgrwt>
</event>
<event>
 4    1  0.4353697E+006  0.2921481E+02  0.7546771E-02  0.1606934E+00
         21   -1    0    0  503  501  0.00000000000E+00  0.00000000000E+00  0.23850536605E+02  0.23850536605E+02  0.00000000000E+00 0.  1.
         21   -1    0    0  504  502 -0.00000000000E+00 -0.00000000000E+00 -0.37118117711E+02  0.37118117711E+02  0.00000000000E+00 0.  1.
         21    1    1    2  503  502  0.57270928642E+01  0.28647954248E+02 -0.85780364636E+00  0.29227396435E+02  0.00000000000E+00 0.  1.
         21    1    1    2  504  501 -0.57270928642E+01 -0.28647954248E+02 -0.12409777460E+02  0.31741257881E+02  0.00000000000E+00 0.  1.
<mgrwt>
<rscale>  2 0.29214806E+02</rscale>
<asrwt>0</asrwt>
<pdfrwt beam="1">  1       21 0.36693133E-02 0.29214806E+02</pdfrwt>
<pdfrwt beam="2">  1       21 0.57104797E-02 0.29214806E+02</pdfrwt>
<totfact> 0.71923988E+07</totfact>
</mgrwt>
</event>
<event>
 4    1  0.4353697E+006  0.2116315E+02  0.7546771E-02  0.1723140E+00
         21   -1    0    0  504  501  0.00000000000E+00  0.00000000000E+00  0.78961867204E+01  0.78961867204E+01  0.00000000000E+00 0.  1.
         21   -1    0    0  503  502 -0.00000000000E+00 -0.00000000000E+00 -0.56741187985E+02  0.56741187985E+02  0.00000000000E+00 0.  1.
         21    1    1    2  503  501 -0.19884171291E+02 -0.72455948323E+01 -0.25033435702E+02  0.32780357159E+02  0.00000000000E+00 0.  1.
         21    1    1    2  504  502  0.19884171291E+02  0.72455948323E+01 -0.23811565563E+02  0.31857017547E+02  0.00000000000E+00 0.  1.
<mgrwt>
<rscale>  2 0.21163150E+02</rscale>
<asrwt>0</asrwt>
<pdfrwt beam="1">  1       21 0.12147980E-02 0.21163150E+02</pdfrwt>
<pdfrwt beam="2">  1       21 0.87294135E-02 0.21163150E+02</pdfrwt>
<totfact> 0.18150274E+08</totfact>
</mgrwt>
</event>
<event>
 4    1  0.4353697E+006  0.2991466E+02  0.7546771E-02  0.1599034E+00
         21   -1    0    0  504  501  0.00000000000E+00  0.00000000000E+00  0.37207925929E+01  0.37207925929E+01  0.00000000000E+00 0. -1.
         21   -1    0    0  501  502 -0.00000000000E+00 -0.00000000000E+00 -0.24424472252E+03  0.24424472252E+03  0.00000000000E+00 0. -1.
         21    1    1    2  503  502  0.11790699602E+02 -0.27493017154E+02 -0.13559390810E+03  0.13885458041E+03  0.00000000000E+00 0. -1.
         21    1    1    2  504  503 -0.11790699602E+02  0.27493017154E+02 -0.10493002184E+03  0.10911093470E+03  0.00000000000E+00 0. -1.
<mgrwt>
<rscale>  2 0.29914655E+02</rscale>
<asrwt>0</asrwt>
<pdfrwt beam="1">  1       21 0.57242960E-03 0.29914655E+02</pdfrwt>
<pdfrwt beam="2">  1       21 0.37576113E-01 0.29914655E+02</pdfrwt>
<totfact> 0.48109213E+07</totfact>
</mgrwt>
</event>
<event>
 4    1  0.4353697E+006  0.2326214E+02  0.7546771E-02  0.1687296E+00
         21   -1    0    0  503  501  0.00000000000E+00  0.00000000000E+00  0.29233605186E+02  0.29233605186E+02  0.00000000000E+00 0. -1.
         21   -1    0    0  504  502 -0.00000000000E+00 -0.00000000000E+00 -0.66233861013E+03  0.66233861013E+03  0.00000000000E+00 0. -1.
         21    1    1    2  503  502  0.94673251702E+01 -0.21248457467E+02 -0.65747250963E+03  0.65788390169E+03  0.00000000000E+00 0. -1.
         21    1    1    2  504  501 -0.94673251702E+01  0.21248457467E+02  0.24367504681E+02  0.33688313626E+02  0.00000000000E+00 0. -1.
<mgrwt>
<rscale>  2 0.23262141E+02</rscale>
<asrwt>0</asrwt>
<pdfrwt beam="1">  1       21 0.44974781E-02 0.23262141E+02</pdfrwt>
<pdfrwt beam="2">  1       21 0.10189824E+00 0.23262141E+02</pdfrwt>
<totfact> 0.26143272E+05</totfact>
</mgrwt>
</event>
<event>
 4    1  0.4353697E+006  0.2062559E+02  0.7546771E-02  0.1733166E+00
         21   -1    0    0  504  501  0.00000000000E+00  0.00000000000E+00  0.26466607993E+03  0.26466607993E+03  0.00000000000E+00 0.  1.
         21   -1    0    0  501  502 -0.00000000000E+00 -0.00000000000E+00 -0.28786090755E+01  0.28786090755E+01  0.00000000000E+00 0. -1.
         21    1    1    2  503  502 -0.19969336747E+01 -0.20528690896E+02  0.41996239334E+02  0.46787808371E+02  0.00000000000E+00 0. -1.
         21    1    1    2  504  503  0.19969336747E+01  0.20528690896E+02  0.21979123152E+03  0.22075688063E+03  0.00000000000E+00 0.  1.
<mgrwt>
<rscale>  2 0.20625588E+02</rscale>
<asrwt>0</asrwt>
<pdfrwt beam="1">  1       21 0.40717839E-01 0.20625588E+02</pdfrwt>
<pdfrwt beam="2">  1       21 0.44286314E-03 0.20625588E+02</pdfrwt>
<totfact> 0.55477730E+07</totfact>
</mgrwt>
</event>
<event>
 4    1  0.4353697E+006  0.2107026E+02  0.7546771E-02  0.1724846E+00
         21   -1    0    0  503  501  0.00000000000E+00  0.00000000000E+00  0.32351707671E+02  0.32351707671E+02  0.00000000000E+00 0.  1.
         21   -1    0    0  504  502 -0.00000000000E+00 -0.00000000000E+00 -0.14144214979E+02  0.14144214979E+02  0.00000000000E+00 0.  1.
         21    1    1    2  503  502  0.20210398705E+02 -0.59578268890E+01  0.50909050979E+01  0.21676559500E+02  0.00000000000E+00 0.  1.
         21    1    1    2  504  501 -0.20210398705E+02  0.59578268890E+01  0.13116587594E+02  0.24819363150E+02  0.00000000000E+00 0.  1.
<mgrwt>
<rscale>  2 0.21070261E+02</rscale>
<asrwt>0</asrwt>
<pdfrwt beam="1">  1       21 0.49771858E-02 0.21070261E+02</pdfrwt>
<pdfrwt beam="2">  1       21 0.21760331E-02 0.21070261E+02</pdfrwt>
<totfact> 0.18461591E+08</totfact>
</mgrwt>
</event>
<event>
 4    1  0.4353697E+006  0.2264390E+02  0.7546771E-02  0.1697348E+00
         21   -1    0    0  502  501  0.00000000000E+00  0.00000000000E+00  0.52125256561E+01  0.52125256561E+01  0.00000000000E+00 0. -1.
         21   -1    0    0  504  502 -0.00000000000E+00 -0.00000000000E+00 -0.12589594444E+03  0.12589594444E+03  0.00000000000E+00 0. -1.
         21    1    1    2  503  501 -0.13110266915E+02  0.18462582461E+02 -0.29688123781E+02  0.37338060252E+02  0.00000000000E+00 0. -1.
         21    1    1    2  504  503  0.13110266915E+02 -0.18462582461E+02 -0.90995295002E+02  0.93770409843E+02  0.00000000000E+00 0. -1.
<mgrwt>
<rscale>  2 0.22643897E+02</rscale>
<asrwt>0</asrwt>
<pdfrwt beam="1">  1       21 0.80192699E-03 0.22643897E+02</pdfrwt>
<pdfrwt beam="2">  1       21 0.19368608E-01 0.22643897E+02</pdfrwt>
<totfact> 0.90263052E+07</totfact>
</mgrwt>
</event>
<event>
 4    1  0.4353697E+006  0.2392021E+02  0.7546771E-02  0.1677014E+00
         21   -1    0    0  503  501  0.00000000000E+00  0.00000000000E+00  0.97182702030E+02  0.97182702030E+02  0.00000000000E+00 0. -1.
         21   -1    0    0  504  502 -0.00000000000E+00 -0.00000000000E+00 -0.11902113637E+02  0.11902113637E+02  0.00000000000E+00 0.  1.
         21    1    1    2  503  502 -0.27635640179E+01 -0.23760028678E+02  0.38680209905E+01  0.24230927247E+02  0.00000000000E+00 0.  1.
         21    1    1    2  504  501  0.27635640179E+01  0.23760028678E+02  0.81412567403E+02  0.84853888420E+02  0.00000000000E+00 0. -1.
<mgrwt>
<rscale>  2 0.23920206E+02</rscale>
<asrwt>0</asrwt>
<pdfrwt beam="1">  1       21 0.14951184E-01 0.23920206E+02</pdfrwt>
<pdfrwt beam="2">  1       21 0.18310945E-02 0.23920206E+02</pdfrwt>
<totfact> 0.41049928E+07</totfact>
</mgrwt>
</event>
<event>
 4    1  0.4353697E+006  0.2087917E+02  0.7546771E-02  0.1728390E+00
         21   -1    0    0  502  501  0.00000000000E+00  0.00000000000E+00  0.21892823736E+03  0.21892823736E+03  0.00000000000E+00 0.  1.
         21   -1    0    0  504  502 -0.00000000000E+00 -0.00000000000E+00 -0.37006354441E+02  0.37006354441E+02  0.00000000000E+00 0.  1.
         21    1    1    2  503  501  0.20347433224E+02 -0.46820493115E+01  0.21543779120E+03  0.21644717947E+03  0.00000000000E+00 0.  1.
         21    1    1    2  504  503 -0.20347433224E+02  0.46820493115E+01 -0.33515908280E+02  0.39487412329E+02  0.00000000000E+00 0.  1.
<mgrwt>
<rscale>  2 0.20879167E+02</rscale>
<asrwt>0</asrwt>
<pdfrwt beam="1">  1       21 0.33681266E-01 0.20879167E+02</pdfrwt>
<pdfrwt beam="2">  1       21 0.56932854E-02 0.20879167E+02</pdfrwt>
<totfact> 0.16250424E+06</totfact>
</mgrwt>
</event>
<event>
 4    1  0.4353697E+006  0.2463374E+02  0.7546771E-02  0.1666319E+00
         21   -1    0    0  504  501  0.00000000000E+00  0.00000000000E+00  0.40619820410E+03  0.40619820410E+03  0.00000000000E+00 0. -1.
         21   -1    0    0  503  502 -0.00000000000E+00 -0.00000000000E+00 -0.72259741994E+01  0.72259741994E+01  0.00000000000E+00 0.  1.
         21    1    1    2  503  501  0.24135818130E+02 -0.49278305329E+01  0.38359443410E+03  0.38438458749E+03  0.00000000000E+00 0. -1.
         21    1    1    2  504  502 -0.24135818130E+02  0.49278305329E+01  0.15377795805E+02  0.29039590810E+02  0.00000000000E+00 0.  1.
<mgrwt>
<rscale>  2 0.24633742E+02</rscale>
<asrwt>0</asrwt>
<pdfrwt beam="1">  1       21 0.62492014E-01 0.24633742E+02</pdfrwt>
<pdfrwt beam="2">  1       21 0.11116887E-02 0.24633742E+02</pdfrwt>
<totfact> 0.63606194E+06</totfact>
</mgrwt>
</event>
<event>
 4    1  0.4353697E+006  0.2150576E+02  0.7546771E-02  0.1716943E+00
         21   -1    0    0  502  501  0.00000000000E+00  0.00000000000E+00  0.49024296173E+01  0.49024296173E+01  0.00000000000E+00 0. -1.
         21   -1    0    0  503  502 -0.00000000000E+00 -0.00000000000E+00 -0.20280411454E+03  0.20280411454E+03  0.00000000000E+00 0. -1.
         21    1    1    2  503  504  0.18670073546E+02  0.10673611232E+02 -0.17490015648E+03  0.17621737247E+03  0.00000000000E+00 0. -1.
         21    1    1    2  504  501 -0.18670073546E+02 -0.10673611232E+02 -0.23001528441E+02  0.31489171687E+02  0.00000000000E+00 0. -1.
<mgrwt>
<rscale>  2 0.21505758E+02</rscale>
<asrwt>0</asrwt>
<pdfrwt beam="1">  1       21 0.75421990E-03 0.21505758E+02</pdfrwt>
<pdfrwt beam="2">  1       21 0.31200635E-01 0.21505758E+02</pdfrwt>
<totfact> 0.41806132E+07</totfact>
</mgrwt>
</event>
<event>
 4    1  0.4353697E+006  0.2276247E+02  0.7546771E-02  0.1695390E+00
         21   -1    0    0  503  501  0.00000000000E+00  0.00000000000E+00  0.23889596249E+03  0.23889596249E+03  0.00000000000E+00 0. -1.
         21   -1    0    0  501  502 -0.00000000000E+00 -0.00000000000E+00 -0.49706240421E+02  0.49706240421E+02  0.00000000000E+00 0. -1.
         21    1    1    2  503  504 -0.21056660927E+02 -0.86456462200E+01  0.23571267625E+03  0.23680919727E+03  0.00000000000E+00 0. -1.
         21    1    1    2  504  502  0.21056660927E+02  0.86456462200E+01 -0.46522954178E+02  0.51793005642E+02  0.00000000000E+00 0. -1.
<mgrwt>
<rscale>  2 0.22762473E+02</rscale>
<asrwt>0</asrwt>
<pdfrwt beam="1">  1       21 0.36753224E-01 0.22762473E+02</pdfrwt>
<pdfrwt beam="2">  1       21 0.76471141E-02 0.22762473E+02</pdfrwt>
<totfact> 0.86751064E+05</totfact>
</mgrwt>
</event>
<event>
 4    1  0.4353697E+006  0.2012517E+02  0.7546771E-02  0.1742850E+00
         21   -1    0    0  504  501  0.00000000000E+00  0.00000000000E+00  0.12235425876E+02  0.12235425876E+02  0.00000000000E+00 0.  1.
         21   -1    0    0  501  502 -0.00000000000E+00 -0.00000000000E+00 -0.36250337976E+02  0.36250337976E+02  0.00000000000E+00 0.  1.
         21    1    1    2  503  502  0.23442162248E+01  0.19988173812E+02 -0.19151409084E+02  0.27781269085E+02  0.00000000000E+00 0.  1.
         21    1    1    2  504  503 -0.23442162248E+01 -0.19988173812E+02 -0.48635030156E+01  0.20704494768E+02  0.00000000000E+00 0.  1.
<mgrwt>
<rscale>  2 0.20125169E+02</rscale>
<asrwt>0</asrwt>
<pdfrwt beam="1">  1       21 0.18823732E-02 0.20125169E+02</pdfrwt>
<pdfrwt beam="2">  1       21 0.55769750E-02 0.20125169E+02</pdfrwt>
<totfact> 0.18948978E+08</totfact>
</mgrwt>
</event>
<event>
 4    1  0.4353697E+006  0.2569057E+02  0.7546771E-02  0.1651277E+00
         21   -1    0    0  502  501  0.00000000000E+00  0.00000000000E+00  0.33841856005E+02  0.33841856005E+02  0.00000000000E+00 0. -1.
         21   -1    0    0  504  502 -0.00000000000E+00 -0.00000000000E+00 -0.23670493863E+02  0.23670493863E+02  0.00000000000E+00 0. -1.
         21    1    1    2  503  501  0.24717250395E+02  0.70044800922E+01  0.17152261193E+02  0.30890213215E+02  0.00000000000E+00 0. -1.
         21    1    1    2  504  503 -0.24717250395E+02 -0.70044800922E+01 -0.69808990507E+01  0.26622136654E+02  0.00000000000E+00 0. -1.
<mgrwt>
<rscale>  2 0.25690567E+02</rscale>
<asrwt>0</asrwt>
<pdfrwt beam="1">  1       21 0.52064394E-02 0.25690567E+02</pdfrwt>
<pdfrwt beam="2">  1       21 0.36416144E-02 0.25690567E+02</pdfrwt>
<totfact> 0.81770071E+07</totfact>
</mgrwt>
</event>
<event>
 4    1  0.4353697E+006  0.2026863E+02  0.7546771E-02  0.1740038E+00
         21   -1    0    0  504  501  0.00000000000E+00  0.00000000000E+00  0.20220696450E+02  0.20220696450E+02  0.00000000000E+00 0.  1.
         21   -1    0    0  501  502 -0.00000000000E+00 -0.00000000000E+00 -0.21387185910E+02  0.21387185910E+02  0.00000000000E+00 0.  1.
         21    1    1    2  503  502 -0.16019000501E+02  0.12418096409E+02 -0.52376325156E+01  0.20934428338E+02  0.00000000000E+00 0.  1.
         21    1    1    2  504  503  0.16019000501E+02 -0.12418096409E+02  0.40711430554E+01  0.20673454023E+02  0.00000000000E+00 0.  1.
<mgrwt>
<rscale>  2 0.20268633E+02</rscale>
<asrwt>0</asrwt>
<pdfrwt beam="1">  1       21 0.31108764E-02 0.20268633E+02</pdfrwt>
<pdfrwt beam="2">  1       21 0.32903363E-02 0.20268633E+02</pdfrwt>
<totfact> 0.20121479E+08</totfact>
</mgrwt>
</event>
<event>
 4    1  0.4353697E+006  0.2190912E+02  0.7546771E-02  0.1709829E+00
         21   -1    0    0  504  501  0.00000000000E+00  0.00000000000E+00  0.55486353553E+02  0.55486353553E+02  0.00000000000E+00 0.  1.
         21   -1    0    0  503  502 -0.00000000000E+00 -0.00000000000E+00 -0.13114994410E+02  0.13114994410E+02  0.00000000000E+00 0.  1.
         21    1    1    2  503  501 -0.15844046476E+02  0.15131940158E+02  0.11740216753E+01  0.21940550325E+02  0.00000000000E+00 0.  1.
         21    1    1    2  504  502  0.15844046476E+02 -0.15131940158E+02  0.41197337468E+02  0.46660797637E+02  0.00000000000E+00 0.  1.
<mgrwt>
<rscale>  2 0.21909117E+02</rscale>
<asrwt>0</asrwt>
<pdfrwt beam="1">  1       21 0.85363620E-02 0.21909117E+02</pdfrwt>
<pdfrwt beam="2">  1       21 0.20176915E-02 0.21909117E+02</pdfrwt>
<totfact> 0.88032101E+07</totfact>
</mgrwt>
</event>
<event>
 4    1  0.4353697E+006  0.2784939E+02  0.7546771E-02  0.1623155E+00
         21   -1    0    0  503  501  0.00000000000E+00  0.00000000000E+00  0.16501572762E+01  0.16501572762E+01  0.00000000000E+00 0.  1.
         21   -1    0    0  504  502 -0.00000000000E+00 -0.00000000000E+00 -0.71744667559E+03  0.71744667559E+03  0.00000000000E+00 0. -1.
         21    1    1    2  503  502  0.17357901179E+01  0.27795244465E+02 -0.14674607374E+03  0.14936531973E+03  0.00000000000E+00 0.  1.
         21    1    1    2  504  501 -0.17357901179E+01 -0.27795244465E+02 -0.56905044458E+03  0.56973151314E+03  0.00000000000E+00 0. -1.
<mgrwt>
<rscale>  2 0.27849391E+02</rscale>
<asrwt>0</asrwt>
<pdfrwt beam="1">  1       21 0.25387074E-03 0.27849391E+02</pdfrwt>
<pdfrwt beam="2">  1       21 0.11037624E+00 0.27849391E+02</pdfrwt>
<totfact> 0.17298490E+07</totfact>
</mgrwt>
</event>
<event>
 4    1  0.4353697E+006  0.4854192E+02  0.7546771E-02  0.1453368E+00
         21   -1    0    0  504  501  0.00000000000E+00  0.00000000000E+00  0.70219507482E+02  0.70219507482E+02  0.00000000000E+00 0.  1.
         21   -1    0    0  503  502 -0.00000000000E+00 -0.00000000000E+00 -0.35480206684E+02  0.35480206684E+02  0.00000000000E+00 0.  1.
         21    1    1    2  503  501 -0.46516345398E+02 -0.13876156547E+02  0.50634307156E+01  0.48805291110E+02  0.00000000000E+00 0.  1.
         21    1    1    2  504  502  0.46516345398E+02  0.13876156547E+02  0.29675870083E+02  0.56894423056E+02  0.00000000000E+00 0.  1.
<mgrwt>
<rscale>  2 0.48541921E+02</rscale>
<asrwt>0</asrwt>
<pdfrwt beam="1">  1       21 0.10803001E-01 0.48541921E+02</pdfrwt>
<pdfrwt beam="2">  1       21 0.54584933E-02 0.48541921E+02</pdfrwt>
<totfact> 0.14426218E+07</totfact>
</mgrwt>
</event>
<event>
 4    1  0.4353697E+006  0.2174279E+02  0.7546771E-02  0.1712739E+00
         21   -1    0    0  503  501  0.00000000000E+00  0.00000000000E+00  0.67717115778E+01  0.67717115778E+01  0.00000000000E+00 0. -1.
         21   -1    0    0  501  502 -0.00000000000E+00 -0.00000000000E+00 -0.84172292158E+03  0.84172292158E+03  0.00000000000E+00 0. -1.
         21    1    1    2  503  504  0.17457045405E+02  0.12961498594E+02 -0.11202539987E+02  0.24459063396E+02  0.00000000000E+00 0. -1.
         21    1    1    2  504  502 -0.17457045405E+02 -0.12961498594E+02 -0.82374867002E+03  0.82403556976E+03  0.00000000000E+00 0. -1.
<mgrwt>
<rscale>  2 0.21742789E+02</rscale>
<asrwt>0</asrwt>
<pdfrwt beam="1">  1       21 0.10418024E-02 0.21742789E+02</pdfrwt>
<pdfrwt beam="2">  1       21 0.12949575E+00 0.21742789E+02</pdfrwt>
<totfact> 0.14438027E+06</totfact>
</mgrwt>
</event>
<event>
 4    1  0.4353697E+006  0.3083669E+02  0.7546771E-02  0.1589020E+00
         21   -1    0    0  504  501  0.00000000000E+00  0.00000000000E+00  0.10844701715E+04  0.10844701715E+04  0.00000000000E+00 0. -1.
         21   -1    0    0  503  502 -0.00000000000E+00 -0.00000000000E+00 -0.92041420099E+00  0.92041420099E+00  0.00000000000E+00 0. -1.
         21    1    1    2  503  501 -0.56271727882E+00 -0.30831551404E+02  0.42368711321E+03  0.42480780491E+03  0.00000000000E+00 0. -1.
         21    1    1    2  504  502  0.56271727882E+00  0.30831551404E+02  0.65986264409E+03  0.66058278079E+03  0.00000000000E+00 0. -1.
<mgrwt>
<rscale>  2 0.30836686E+02</rscale>
<asrwt>0</asrwt>
<pdfrwt beam="1">  1       21 0.16684054E+00 0.30836686E+02</pdfrwt>
<pdfrwt beam="2">  1       21 0.14160305E-03 0.30836686E+02</pdfrwt>
<totfact> 0.15488403E+07</totfact>
</mgrwt>
</event>
<event>
 4    1  0.4353697E+006  0.2104490E+02  0.7546771E-02  0.1725313E+00
         21   -1    0    0  504  501  0.00000000000E+00  0.00000000000E+00  0.88118145339E+00  0.88118145339E+00  0.00000000000E+00 0. -1.
         21   -1    0    0  503  502 -0.00000000000E+00 -0.00000000000E+00 -0.80771667101E+03  0.80771667101E+03  0.00000000000E+00 0. -1.
         21    1    1    2  503  501  0.95154378844E+01  0.18770835470E+02 -0.15493217796E+03  0.15635494105E+03  0.00000000000E+00 0. -1.
         21    1    1    2  504  502 -0.95154378844E+01 -0.18770835470E+02 -0.65190331159E+03  0.65224291141E+03  0.00000000000E+00 0. -1.
<mgrwt>
<rscale>  2 0.21044900E+02</rscale>
<asrwt>0</asrwt>
<pdfrwt beam="1">  1       21 0.13556658E-03 0.21044900E+02</pdfrwt>
<pdfrwt beam="2">  1       21 0.12426392E+00 0.21044900E+02</pdfrwt>
<totfact> 0.31128081E+07</totfact>
</mgrwt>
</event>
<event>
 4    1  0.4353697E+006  0.2129125E+02  0.7546771E-02  0.1720806E+00
         21   -1    0    0  504  501  0.00000000000E+00  0.00000000000E+00  0.61205361726E+01  0.61205361726E+01  0.00000000000E+00 0. -1.
         21   -1    0    0  501  502 -0.00000000000E+00 -0.00000000000E+00 -0.89664305017E+02  0.89664305017E+02  0.00000000000E+00 0. -1.
         21    1    1    2  503  502  0.10245289597E+02  0.18664175716E+02 -0.61747944773E+02  0.65315588475E+02  0.00000000000E+00 0. -1.
         21    1    1    2  504  503 -0.10245289597E+02 -0.18664175716E+02 -0.21795824071E+02  0.30469252715E+02  0.00000000000E+00 0. -1.
<mgrwt>
<rscale>  2 0.21291252E+02</rscale>
<asrwt>0</asrwt>
<pdfrwt beam="1">  1       21 0.94162097E-03 0.21291252E+02</pdfrwt>
<pdfrwt beam="2">  1       21 0.13794508E-01 0.21291252E+02</pdfrwt>
<totfact> 0.12472954E+08</totfact>
</mgrwt>
</event>
<event>
 4    1  0.4353697E+006  0.2100873E+02  0.7546771E-02  0.1725982E+00
         21   -1    0    0  504  501  0.00000000000E+00  0.00000000000E+00  0.12327286288E+01  0.12327286288E+01  0.00000000000E+00 0.  1.
         21   -1    0    0  501  502 -0.00000000000E+00 -0.00000000000E+00 -0.13846615199E+04  0.13846615199E+04  0.00000000000E+00 0.  1.
         21    1    1    2  503  502  0.13089419158E+02 -0.16432702309E+02 -0.12883832812E+04  0.12885545568E+04  0.00000000000E+00 0.  1.
         21    1    1    2  504  503 -0.13089419158E+02  0.16432702309E+02 -0.95045510024E+02  0.97339691672E+02  0.00000000000E+00 0.  1.
<mgrwt>
<rscale>  2 0.21008727E+02</rscale>
<asrwt>0</asrwt>
<pdfrwt beam="1">  1       21 0.18965089E-03 0.21008727E+02</pdfrwt>
<pdfrwt beam="2">  1       21 0.21302448E+00 0.21008727E+02</pdfrwt>
<totfact> 0.52280894E+06</totfact>
</mgrwt>
</event>
<event>
 4    1  0.4353697E+006  0.2062754E+02  0.7546771E-02  0.1733129E+00
         21   -1    0    0  503  501  0.00000000000E+00  0.00000000000E+00  0.22000477986E+02  0.22000477986E+02  0.00000000000E+00 0. -1.
         21   -1    0    0  504  502 -0.00000000000E+00 -0.00000000000E+00 -0.21324713389E+02  0.21324713389E+02  0.00000000000E+00 0. -1.
         21    1    1    2  503  502 -0.16496034185E+02  0.12384519809E+02 -0.62703728893E+01  0.21559523439E+02  0.00000000000E+00 0. -1.
         21    1    1    2  504  501  0.16496034185E+02 -0.12384519809E+02  0.69461374865E+01  0.21765667936E+02  0.00000000000E+00 0. -1.
<mgrwt>
<rscale>  2 0.20627542E+02</rscale>
<asrwt>0</asrwt>
<pdfrwt beam="1">  1       21 0.33846890E-02 0.20627542E+02</pdfrwt>
<pdfrwt beam="2">  1       21 0.32807251E-02 0.20627542E+02</pdfrwt>
<totfact> 0.17828671E+08</totfact>
</mgrwt>
</event>
<event>
 4    1  0.4353697E+006  0.3414887E+02  0.7546771E-02  0.1556291E+00
         21   -1    0    0  502  501  0.00000000000E+00  0.00000000000E+00  0.36902616532E+02  0.36902616532E+02  0.00000000000E+00 0.  1.
         21   -1    0    0  504  502 -0.00000000000E+00 -0.00000000000E+00 -0.20314428592E+03  0.20314428592E+03  0.00000000000E+00 0.  1.
         21    1    1    2  503  501  0.32057673306E+02 -0.11766506763E+02  0.27172981679E+02  0.43640761136E+02  0.00000000000E+00 0.  1.
         21    1    1    2  504  503 -0.32057673306E+02  0.11766506763E+02 -0.19341465107E+03  0.19640614132E+03  0.00000000000E+00 0.  1.
<mgrwt>
<rscale>  2 0.34148867E+02</rscale>
<asrwt>0</asrwt>
<pdfrwt beam="1">  1       21 0.56773256E-02 0.34148867E+02</pdfrwt>
<pdfrwt beam="2">  1       21 0.31252967E-01 0.34148867E+02</pdfrwt>
<totfact> 0.19737654E+06</totfact>
</mgrwt>
</event>
<event>
 4    1  0.4353697E+006  0.2228119E+02  0.7546771E-02  0.1703434E+00
         21   -1    0    0  503  501  0.00000000000E+00  0.00000000000E+00  0.10007791011E+03  0.10007791011E+03  0.00000000000E+00 0.  1.
         21   -1    0    0  504  502 -0.00000000000E+00 -0.00000000000E+00 -0.55685432050E+01  0.55685432050E+01  0.00000000000E+00 0. -1.
         21    1    1    2  503  502 -0.47556983669E+01  0.21767746443E+02  0.29801771802E+02  0.37210174075E+02  0.00000000000E+00 0. -1.
         21    1    1    2  504  501  0.47556983669E+01 -0.21767746443E+02  0.64707595105E+02  0.68436279241E+02  0.00000000000E+00 0.  1.
<mgrwt>
<rscale>  2 0.22281191E+02</rscale>
<asrwt>0</asrwt>
<pdfrwt beam="1">  1       21 0.15396600E-01 0.22281191E+02</pdfrwt>
<pdfrwt beam="2">  1       21 0.85669903E-03 0.22281191E+02</pdfrwt>
<totfact> 0.12083604E+08</totfact>
</mgrwt>
</event>
<event>
 4    1  0.4353697E+006  0.2213927E+02  0.7546771E-02  0.1705855E+00
         21   -1    0    0  504  501  0.00000000000E+00  0.00000000000E+00  0.22712242829E+01  0.22712242829E+01  0.00000000000E+00 0. -1.
         21   -1    0    0  501  502 -0.00000000000E+00 -0.00000000000E+00 -0.25397384746E+03  0.25397384746E+03  0.00000000000E+00 0.  1.
         21    1    1    2  503  502 -0.88375001713E+01  0.20298908511E+02 -0.17551873987E+03  0.17690951117E+03  0.00000000000E+00 0.  1.
         21    1    1    2  504  503  0.88375001713E+01 -0.20298908511E+02 -0.76183883302E+02  0.79335560570E+02  0.00000000000E+00 0. -1.
<mgrwt>
<rscale>  2 0.22139266E+02</rscale>
<asrwt>0</asrwt>
<pdfrwt beam="1">  1       21 0.34941907E-03 0.22139266E+02</pdfrwt>
<pdfrwt beam="2">  1       21 0.39072905E-01 0.22139266E+02</pdfrwt>
<totfact> 0.86340081E+07</totfact>
</mgrwt>
</event>
<event>
 4    1  0.4353697E+006  0.2948566E+02  0.7546771E-02  0.1603845E+00
         21   -1    0    0  503  501  0.00000000000E+00  0.00000000000E+00  0.10607079688E+04  0.10607079688E+04  0.00000000000E+00 0. -1.
         21   -1    0    0  501  502 -0.00000000000E+00 -0.00000000000E+00 -0.16944987220E+01  0.16944987220E+01  0.00000000000E+00 0. -1.
         21    1    1    2  503  504 -0.15485189571E+02  0.25092094952E+02  0.91119261509E+03  0.91166955972E+03  0.00000000000E+00 0. -1.
         21    1    1    2  504  502  0.15485189571E+02 -0.25092094952E+02  0.14782085498E+03  0.15073290780E+03  0.00000000000E+00 0. -1.
<mgrwt>
<rscale>  2 0.29485663E+02</rscale>
<asrwt>0</asrwt>
<pdfrwt beam="1">  1       21 0.16318531E+00 0.29485663E+02</pdfrwt>
<pdfrwt beam="2">  1       21 0.26069296E-03 0.29485663E+02</pdfrwt>
<totfact> 0.66977429E+06</totfact>
</mgrwt>
</event>
<event>
 4    1  0.4353697E+006  0.2143663E+02  0.7546771E-02  0.1718181E+00
         21   -1    0    0  503  501  0.00000000000E+00  0.00000000000E+00  0.41241911748E+03  0.41241911748E+03  0.00000000000E+00 0.  1.
         21   -1    0    0  504  502 -0.00000000000E+00 -0.00000000000E+00 -0.66173981973E+02  0.66173981973E+02  0.00000000000E+00 0.  1.
         21    1    1    2  503  502  0.31213458688E+01 -0.21208165925E+02  0.41039594363E+03  0.41095542294E+03  0.00000000000E+00 0.  1.
         21    1    1    2  504  501 -0.31213458688E+01  0.21208165925E+02 -0.64150808116E+02  0.67637676512E+02  0.00000000000E+00 0.  1.
<mgrwt>
<rscale>  2 0.21436630E+02</rscale>
<asrwt>0</asrwt>
<pdfrwt beam="1">  1       21 0.63449093E-01 0.21436630E+02</pdfrwt>
<pdfrwt beam="2">  1       21 0.10180613E-01 0.21436630E+02</pdfrwt>
<totfact> 0.18829661E+05</totfact>
</mgrwt>
</event>
<event>
 4    1  0.4353697E+006  0.2843389E+02  0.7546771E-02  0.1616074E+00
         21   -1    0    0  504  501  0.00000000000E+00  0.00000000000E+00  0.17971809052E+02  0.17971809052E+02  0.00000000000E+00 0. -1.
         21   -1    0    0  503  502 -0.00000000000E+00 -0.00000000000E+00 -0.20154929830E+03  0.20154929830E+03  0.00000000000E+00 0.  1.
         21    1    1    2  503  501  0.24032626146E+02 -0.15196026539E+02  0.49499271343E+01  0.28861533582E+02  0.00000000000E+00 0. -1.
         21    1    1    2  504  502 -0.24032626146E+02  0.15196026539E+02 -0.18852741638E+03  0.19065957377E+03  0.00000000000E+00 0.  1.
<mgrwt>
<rscale>  2 0.28433894E+02</rscale>
<asrwt>0</asrwt>
<pdfrwt beam="1">  1       21 0.27648936E-02 0.28433894E+02</pdfrwt>
<pdfrwt beam="2">  1       21 0.31007585E-01 0.28433894E+02</pdfrwt>
<totfact> 0.61712469E+06</totfact>
</mgrwt>
</event>
<event>
 4    1  0.4353697E+006  0.2872653E+02  0.7546771E-02  0.1612607E+00
         21   -1    0    0  503  501  0.00000000000E+00  0.00000000000E+00  0.76879950292E+02  0.76879950292E+02  0.00000000000E+00 0. -1.
         21   -1    0    0  504  502 -0.00000000000E+00 -0.00000000000E+00 -0.20080988082E+02  0.20080988082E+02  0.00000000000E+00 0.  1.
         21    1    1    2  503  502  0.28360604566E+01  0.28586188642E+02  0.61475630454E+02  0.67856219757E+02  0.00000000000E+00 0. -1.
         21    1    1    2  504  501 -0.28360604566E+01 -0.28586188642E+02 -0.46766682432E+01  0.29104718618E+02  0.00000000000E+00 0.  1.
<mgrwt>
<rscale>  2 0.28726528E+02</rscale>
<asrwt>0</asrwt>
<pdfrwt beam="1">  1       21 0.11827685E-01 0.28726528E+02</pdfrwt>
<pdfrwt beam="2">  1       21 0.30893828E-02 0.28726528E+02</pdfrwt>
<totfact> 0.28261540E+07</totfact>
</mgrwt>
</event>
<event>
 4    1  0.4353697E+006  0.2582974E+02  0.7546771E-02  0.1649362E+00
         21   -1    0    0  503  501  0.00000000000E+00  0.00000000000E+00  0.48431672313E+03  0.48431672313E+03  0.00000000000E+00 0.  1.
         21   -1    0    0  504  502 -0.00000000000E+00 -0.00000000000E+00 -0.23971311602E+03  0.23971311602E+03  0.00000000000E+00 0. -1.
         21    1    1    2  503  502  0.24678503421E+02 -0.76254040822E+01  0.48327502839E+03  0.48396480077E+03  0.00000000000E+00 0.  1.
         21    1    1    2  504  501 -0.24678503421E+02  0.76254040822E+01 -0.23867142127E+03  0.24006503838E+03  0.00000000000E+00 0. -1.
<mgrwt>
<rscale>  2 0.25829737E+02</rscale>
<asrwt>0</asrwt>
<pdfrwt beam="1">  1       21 0.74510265E-01 0.25829737E+02</pdfrwt>
<pdfrwt beam="2">  1       21 0.36878941E-01 0.25829737E+02</pdfrwt>
<totfact> 0.14192789E+04</totfact>
</mgrwt>
</event>
<event>
 4    1  0.4353697E+006  0.2036170E+02  0.7546771E-02  0.1738229E+00
         21   -1    0    0  502  501  0.00000000000E+00  0.00000000000E+00  0.15063808927E+04  0.15063808927E+04  0.00000000000E+00 0.  1.
         21   -1    0    0  504  502 -0.00000000000E+00 -0.00000000000E+00 -0.43440604510E+02  0.43440604510E+02  0.00000000000E+00 0.  1.
         21    1    1    2  503  501 -0.15805252163E+02 -0.12837164965E+02  0.15039221753E+04  0.15040600082E+04  0.00000000000E+00 0.  1.
         21    1    1    2  504  503  0.15805252163E+02  0.12837164965E+02 -0.40981887158E+02  0.45761488998E+02  0.00000000000E+00 0.  1.
<mgrwt>
<rscale>  2 0.20361699E+02</rscale>
<asrwt>0</asrwt>
<pdfrwt beam="1">  1       21 0.23175087E+00 0.20361699E+02</pdfrwt>
<pdfrwt beam="2">  1       21 0.66831711E-02 0.20361699E+02</pdfrwt>
<totfact> 0.19427397E+04</totfact>
</mgrwt>
</event>
<event>
 4    1  0.4353697E+006  0.3150922E+02  0.7546771E-02  0.1581981E+00
         21   -1    0    0  504  501  0.00000000000E+00  0.00000000000E+00  0.16562643375E+03  0.16562643375E+03  0.00000000000E+00 0.  1.
         21   -1    0    0  501  502 -0.00000000000E+00 -0.00000000000E+00 -0.80267121343E+02  0.80267121343E+02  0.00000000000E+00 0.  1.
         21    1    1    2  503  502  0.10663346673E+02 -0.29650028277E+02 -0.75587178606E+02  0.81891713309E+02  0.00000000000E+00 0.  1.
         21    1    1    2  504  503 -0.10663346673E+02  0.29650028277E+02  0.16094649101E+03  0.16400184178E+03  0.00000000000E+00 0.  1.
<mgrwt>
<rscale>  2 0.31509223E+02</rscale>
<asrwt>0</asrwt>
<pdfrwt beam="1">  1       21 0.25480990E-01 0.31509223E+02</pdfrwt>
<pdfrwt beam="2">  1       21 0.12348788E-01 0.31509223E+02</pdfrwt>
<totfact> 0.78514437E+05</totfact>
</mgrwt>
</event>
<event>
 4    1  0.4353697E+006  0.2140082E+02  0.7546771E-02  0.1718825E+00
         21   -1    0    0  503  501  0.00000000000E+00  0.00000000000E+00  0.56613045538E+02  0.56613045538E+02  0.00000000000E+00 0. -1.
         21   -1    0    0  504  502 -0.00000000000E+00 -0.00000000000E+00 -0.82757136404E+01  0.82757136404E+01  0.00000000000E+00 0. -1.
         21    1    1    2  503  502  0.20283986193E+02  0.68231265366E+01  0.19307401667E+02  0.28823096828E+02  0.00000000000E+00 0. -1.
         21    1    1    2  504  501 -0.20283986193E+02 -0.68231265366E+01  0.29029930230E+02  0.36065662350E+02  0.00000000000E+00 0. -1.
<mgrwt>
<rscale>  2 0.21400821E+02</rscale>
<asrwt>0</asrwt>
<pdfrwt beam="1">  1       21 0.87096991E-02 0.21400821E+02</pdfrwt>
<pdfrwt beam="2">  1       21 0.12731868E-02 0.21400821E+02</pdfrwt>
<totfact> 0.17032313E+08</totfact>
</mgrwt>
</event>
<event>
 4    1  0.4353697E+006  0.2034454E+02  0.7546771E-02  0.1738562E+00
         21   -1    0    0  502  501  0.00000000000E+00  0.00000000000E+00  0.54212271706E+03  0.54212271706E+03  0.00000000000E+00 0.  1.
         21   -1    0    0  503  502 -0.00000000000E+00 -0.00000000000E+00 -0.26580149053E+01  0.26580149053E+01  0.00000000000E+00 0.  1.
         21    1    1    2  503  504  0.15390132317E+01  0.20286247237E+02  0.39766034358E+02  0.44668085668E+02  0.00000000000E+00 0.  1.
         21    1    1    2  504  501 -0.15390132317E+01 -0.20286247237E+02  0.49969866779E+03  0.50011264629E+03  0.00000000000E+00 0.  1.
<mgrwt>
<rscale>  2 0.20344542E+02</rscale>
<asrwt>0</asrwt>
<pdfrwt beam="1">  1       21 0.83403407E-01 0.20344542E+02</pdfrwt>
<pdfrwt beam="2">  1       21 0.40892580E-03 0.20344542E+02</pdfrwt>
<totfact> 0.14992099E+07</totfact>
</mgrwt>
</event>
<event>
 4    1  0.4353697E+006  0.2239585E+02  0.7546771E-02  0.1701495E+00
         21   -1    0    0  503  501  0.00000000000E+00  0.00000000000E+00  0.58898791504E+02  0.58898791504E+02  0.00000000000E+00 0. -1.
         21   -1    0    0  504  502 -0.00000000000E+00 -0.00000000000E+00 -0.11257249144E+02  0.11257249144E+02  0.00000000000E+00 0. -1.
         21    1    1    2  503  502 -0.18356437177E+02 -0.12830245395E+02  0.41131052231E+02  0.46833080620E+02  0.00000000000E+00 0. -1.
         21    1    1    2  504  501  0.18356437177E+02  0.12830245395E+02  0.65104901290E+01  0.23322960028E+02  0.00000000000E+00 0. -1.
<mgrwt>
<rscale>  2 0.22395847E+02</rscale>
<asrwt>0</asrwt>
<pdfrwt beam="1">  1       21 0.90613524E-02 0.22395847E+02</pdfrwt>
<pdfrwt beam="2">  1       21 0.17318845E-02 0.22395847E+02</pdfrwt>
<totfact> 0.10146416E+08</totfact>
</mgrwt>
</event>
<event>
 4    1  0.4353697E+006  0.2473359E+02  0.7546771E-02  0.1664858E+00
         21   -1    0    0  503  501  0.00000000000E+00  0.00000000000E+00  0.91841655078E+02  0.91841655078E+02  0.00000000000E+00 0.  1.
         21   -1    0    0  504  502 -0.00000000000E+00 -0.00000000000E+00 -0.15666250940E+02  0.15666250940E+02  0.00000000000E+00 0.  1.
         21    1    1    2  503  502  0.13433076924E+02  0.20767838452E+02 -0.26669799641E+01  0.24876966289E+02  0.00000000000E+00 0.  1.
         21    1    1    2  504  501 -0.13433076924E+02 -0.20767838452E+02  0.78842384102E+02  0.82630939729E+02  0.00000000000E+00 0.  1.
<mgrwt>
<rscale>  2 0.24733594E+02</rscale>
<asrwt>0</asrwt>
<pdfrwt beam="1">  1       21 0.14129485E-01 0.24733594E+02</pdfrwt>
<pdfrwt beam="2">  1       21 0.24101925E-02 0.24733594E+02</pdfrwt>
<totfact> 0.29832771E+07</totfact>
</mgrwt>
</event>
<event>
 4    1  0.4353697E+006  0.2266994E+02  0.7546771E-02  0.1696917E+00
         21   -1    0    0  502  501  0.00000000000E+00  0.00000000000E+00  0.17011820119E+02  0.17011820119E+02  0.00000000000E+00 0. -1.
         21   -1    0    0  504  502 -0.00000000000E+00 -0.00000000000E+00 -0.94973004367E+02  0.94973004367E+02  0.00000000000E+00 0.  1.
         21    1    1    2  503  501 -0.18989183704E+02  0.12382929640E+02  0.72567422601E+01  0.23803074432E+02  0.00000000000E+00 0. -1.
         21    1    1    2  504  503  0.18989183704E+02 -0.12382929640E+02 -0.85217926508E+02  0.88181750054E+02  0.00000000000E+00 0.  1.
<mgrwt>
<rscale>  2 0.22669937E+02</rscale>
<asrwt>0</asrwt>
<pdfrwt beam="1">  1       21 0.26172031E-02 0.22669937E+02</pdfrwt>
<pdfrwt beam="2">  1       21 0.14611231E-01 0.22669937E+02</pdfrwt>
<totfact> 0.24314472E+07</totfact>
</mgrwt>
</event>
<event>
 4    1  0.4353697E+006  0.2953067E+02  0.7546771E-02  0.1603335E+00
         21   -1    0    0  502  501  0.00000000000E+00  0.00000000000E+00  0.15543767947E+03  0.15543767947E+03  0.00000000000E+00 0. -1.
         21   -1    0    0  504  502 -0.00000000000E+00 -0.00000000000E+00 -0.10557657742E+02  0.10557657742E+02  0.00000000000E+00 0.  1.
         21    1    1    2  503  501 -0.31746831138E+01 -0.29359530532E+02  0.12925544423E+03  0.13258593632E+03  0.00000000000E+00 0. -1.
         21    1    1    2  504  503  0.31746831138E+01  0.29359530532E+02  0.15624577493E+02  0.33409400889E+02  0.00000000000E+00 0.  1.
<mgrwt>
<rscale>  2 0.29530673E+02</rscale>
<asrwt>0</asrwt>
<pdfrwt beam="1">  1       21 0.23913487E-01 0.29530673E+02</pdfrwt>
<pdfrwt beam="2">  1       21 0.16242552E-02 0.29530673E+02</pdfrwt>
<totfact> 0.22720251E+07</totfact>
</mgrwt>
</event>
<event>
 4    1  0.4353697E+006  0.2248115E+02  0.7546771E-02  0.1700061E+00
         21   -1    0    0  503  501  0.00000000000E+00  0.00000000000E+00  0.32173139748E+02  0.32173139748E+02  0.00000000000E+00 0.  1.
         21   -1    0    0  504  502 -0.00000000000E+00 -0.00000000000E+00 -0.89632985986E+02  0.89632985986E+02  0.00000000000E+00 0. -1.
         21    1    1    2  503  502  0.22376854325E+02  0.21629989345E+01  0.26579408260E+02  0.34811881841E+02  0.00000000000E+00 0.  1.
         21    1    1    2  504  501 -0.22376854325E+02 -0.21629989345E+01 -0.84039254498E+02  0.86994243892E+02  0.00000000000E+00 0. -1.
<mgrwt>
<rscale>  2 0.22481152E+02</rscale>
<asrwt>0</asrwt>
<pdfrwt beam="1">  1       21 0.49497139E-02 0.22481152E+02</pdfrwt>
<pdfrwt beam="2">  1       21 0.13789690E-01 0.22481152E+02</pdfrwt>
<totfact> 0.98563430E+06</totfact>
</mgrwt>
</event>
<event>
 4    1  0.4353697E+006  0.2188111E+02  0.7546771E-02  0.1710316E+00
         21   -1    0    0  504  501  0.00000000000E+00  0.00000000000E+00  0.28187605464E+03  0.28187605464E+03  0.00000000000E+00 0.  1.
         21   -1    0    0  503  502 -0.00000000000E+00 -0.00000000000E+00 -0.18723079772E+01  0.18723079772E+01  0.00000000000E+00 0.  1.
         21    1    1    2  503  501 -0.43821690551E+01 -0.21437803109E+02  0.18322111982E+03  0.18452306511E+03  0.00000000000E+00 0.  1.
         21    1    1    2  504  502  0.43821690551E+01  0.21437803109E+02  0.96782626842E+02  0.99225297512E+02  0.00000000000E+00 0.  1.
<mgrwt>
<rscale>  2 0.21881106E+02</rscale>
<asrwt>0</asrwt>
<pdfrwt beam="1">  1       21 0.43365513E-01 0.21881106E+02</pdfrwt>
<pdfrwt beam="2">  1       21 0.28804761E-03 0.21881106E+02</pdfrwt>
<totfact> 0.93670530E+07</totfact>
</mgrwt>
</event>
<event>
 4    1  0.4353697E+006  0.2051521E+02  0.7546771E-02  0.1735272E+00
         21   -1    0    0  503  501  0.00000000000E+00  0.00000000000E+00  0.34917517330E+03  0.34917517330E+03  0.00000000000E+00 0. -1.
         21   -1    0    0  504  502 -0.00000000000E+00 -0.00000000000E+00 -0.19726901984E+02  0.19726901984E+02  0.00000000000E+00 0.  1.
         21    1    1    2  503  502 -0.64222467221E+01 -0.19484056667E+02 -0.14003002159E+02  0.24838634959E+02  0.00000000000E+00 0.  1.
         21    1    1    2  504  501  0.64222467221E+01  0.19484056667E+02  0.34345127348E+03  0.34406344033E+03  0.00000000000E+00 0. -1.
<mgrwt>
<rscale>  2 0.20515207E+02</rscale>
<asrwt>0</asrwt>
<pdfrwt beam="1">  1       21 0.53719253E-01 0.20515207E+02</pdfrwt>
<pdfrwt beam="2">  1       21 0.30349082E-02 0.20515207E+02</pdfrwt>
<totfact> 0.18025025E+06</totfact>
</mgrwt>
</event>
<event>
 4    1  0.4353697E+006  0.2078789E+02  0.7546771E-02  0.1730099E+00
         21   -1    0    0  502  501  0.00000000000E+00  0.00000000000E+00  0.15866939912E+01  0.15866939912E+01  0.00000000000E+00 0.  1.
         21   -1    0    0  504  502 -0.00000000000E+00 -0.00000000000E+00 -0.33535349338E+03  0.33535349338E+03  0.00000000000E+00 0. -1.
         21    1    1    2  503  501  0.19746552484E+02  0.64969360730E+01 -0.93861548961E+02  0.96135981229E+02  0.00000000000E+00 0.  1.
         21    1    1    2  504  503 -0.19746552484E+02 -0.64969360730E+01 -0.23990525043E+03  0.24080420614E+03  0.00000000000E+00 0. -1.
<mgrwt>
<rscale>  2 0.20787893E+02</rscale>
<asrwt>0</asrwt>
<pdfrwt beam="1">  1       21 0.24410668E-03 0.20787893E+02</pdfrwt>
<pdfrwt beam="2">  1       21 0.51592864E-01 0.20787893E+02</pdfrwt>
<totfact> 0.84122739E+07</totfact>
</mgrwt>
</event>
<event>
 4    1  0.4353697E+006  0.2356414E+02  0.7546771E-02  0.1682525E+00
         21   -1    0    0  502  501  0.00000000000E+00  0.00000000000E+00  0.27228393768E+03  0.27228393768E+03  0.00000000000E+00 0. -1.
         21   -1    0    0  503  502 -0.00000000000E+00 -0.00000000000E+00 -0.24437983308E+01  0.24437983308E+01  0.00000000000E+00 0.  1.
         21    1    1    2  503  504 -0.15662783093E+02  0.17605284813E+02  0.79034740265E+02  0.82472777305E+02  0.00000000000E+00 0.  1.
         21    1    1    2  504  501  0.15662783093E+02 -0.17605284813E+02  0.19080539908E+03  0.19225495871E+03  0.00000000000E+00 0. -1.
<mgrwt>
<rscale>  2 0.23564143E+02</rscale>
<asrwt>0</asrwt>
<pdfrwt beam="1">  1       21 0.41889813E-01 0.23564143E+02</pdfrwt>
<pdfrwt beam="2">  1       21 0.37596919E-03 0.23564143E+02</pdfrwt>
<totfact> 0.69112549E+07</totfact>
</mgrwt>
</event>
<event>
 4    1  0.4353697E+006  0.2057198E+02  0.7546771E-02  0.1734187E+00
         21   -1    0    0  504  501  0.00000000000E+00  0.00000000000E+00  0.24020369656E+02  0.24020369656E+02  0.00000000000E+00 0. -1.
         21   -1    0    0  503  502 -0.00000000000E+00 -0.00000000000E+00 -0.45296137591E+02  0.45296137591E+02  0.00000000000E+00 0. -1.
         21    1    1    2  503  501  0.17553150628E+02 -0.10728162194E+02 -0.37729779837E+02  0.42973746027E+02  0.00000000000E+00 0. -1.
         21    1    1    2  504  502 -0.17553150628E+02  0.10728162194E+02  0.16454011902E+02  0.26342761220E+02  0.00000000000E+00 0. -1.
<mgrwt>
<rscale>  2 0.20571985E+02</rscale>
<asrwt>0</asrwt>
<pdfrwt beam="1">  1       21 0.36954415E-02 0.20571985E+02</pdfrwt>
<pdfrwt beam="2">  1       21 0.69686365E-02 0.20571985E+02</pdfrwt>
<totfact> 0.47157559E+07</totfact>
</mgrwt>
</event>
<event>
 4    1  0.4353697E+006  0.2350941E+02  0.7546771E-02  0.1683383E+00
         21   -1    0    0  503  501  0.00000000000E+00  0.00000000000E+00  0.20768044501E+02  0.20768044501E+02  0.00000000000E+00 0. -1.
         21   -1    0    0  501  502 -0.00000000000E+00 -0.00000000000E+00 -0.32499680585E+02  0.32499680585E+02  0.00000000000E+00 0. -1.
         21    1    1    2  503  504 -0.40377929390E+01 -0.23160063815E+02  0.54697532851E+01  0.24137326462E+02  0.00000000000E+00 0. -1.
         21    1    1    2  504  502  0.40377929390E+01  0.23160063815E+02 -0.17201389370E+02  0.29130398624E+02  0.00000000000E+00 0. -1.
<mgrwt>
<rscale>  2 0.23509409E+02</rscale>
<asrwt>0</asrwt>
<pdfrwt beam="1">  1       21 0.31950838E-02 0.23509409E+02</pdfrwt>
<pdfrwt beam="2">  1       21 0.49999509E-02 0.23509409E+02</pdfrwt>
<totfact> 0.10455754E+08</totfact>
</mgrwt>
</event>
<event>
 4    1  0.4353697E+006  0.3372309E+02  0.7546771E-02  0.1560241E+00
         21   -1    0    0  504  501  0.00000000000E+00  0.00000000000E+00  0.78561305298E+01  0.78561305298E+01  0.00000000000E+00 0. -1.
         21   -1    0    0  503  502 -0.00000000000E+00 -0.00000000000E+00 -0.32069241805E+03  0.32069241805E+03  0.00000000000E+00 0. -1.
         21    1    1    2  503  501 -0.42419650775E+01 -0.33455235182E+02 -0.34743759617E+02  0.48418755262E+02  0.00000000000E+00 0. -1.
         21    1    1    2  504  502  0.42419650775E+01  0.33455235182E+02 -0.27809252790E+03  0.28012979331E+03  0.00000000000E+00 0. -1.
<mgrwt>
<rscale>  2 0.33723093E+02</rscale>
<asrwt>0</asrwt>
<pdfrwt beam="1">  1       21 0.12086357E-02 0.33723093E+02</pdfrwt>
<pdfrwt beam="2">  1       21 0.49337285E-01 0.33723093E+02</pdfrwt>
<totfact> 0.93890981E+06</totfact>
</mgrwt>
</event>
<event>
 4    1  0.4353697E+006  0.3233833E+02  0.7546771E-02  0.1573592E+00
         21   -1    0    0  503  501  0.00000000000E+00  0.00000000000E+00  0.19439226169E+03  0.19439226169E+03  0.00000000000E+00 0. -1.
         21   -1    0    0  504  502 -0.00000000000E+00 -0.00000000000E+00 -0.14337149125E+02  0.14337149125E+02  0.00000000000E+00 0. -1.
         21    1    1    2  503  502  0.16789178079E+02  0.27638582722E+02  0.75349621528E+01  0.33204569115E+02  0.00000000000E+00 0. -1.
         21    1    1    2  504  501 -0.16789178079E+02 -0.27638582722E+02  0.17252015042E+03  0.17552484170E+03  0.00000000000E+00 0. -1.
<mgrwt>
<rscale>  2 0.32338333E+02</rscale>
<asrwt>0</asrwt>
<pdfrwt beam="1">  1       21 0.29906500E-01 0.32338333E+02</pdfrwt>
<pdfrwt beam="2">  1       21 0.22057154E-02 0.32338333E+02</pdfrwt>
<totfact> 0.95647412E+06</totfact>
</mgrwt>
</event>
<event>
 4    1  0.4353697E+006  0.2323627E+02  0.7546771E-02  0.1687709E+00
         21   -1    0    0  503  501  0.00000000000E+00  0.00000000000E+00  0.73788479247E+02  0.73788479247E+02  0.00000000000E+00 0.  1.
         21   -1    0    0  504  502 -0.00000000000E+00 -0.00000000000E+00 -0.22697327207E+02  0.22697327207E+02  0.00000000000E+00 0. -1.
         21    1    1    2  503  502 -0.16003369646E+02  0.16846851688E+02  0.65257981544E+02  0.69271411182E+02  0.00000000000E+00 0.  1.
         21    1    1    2  504  501  0.16003369646E+02 -0.16846851688E+02 -0.14166829505E+02  0.27214395273E+02  0.00000000000E+00 0. -1.
<mgrwt>
<rscale>  2 0.23236270E+02</rscale>
<asrwt>0</asrwt>
<pdfrwt beam="1">  1       21 0.11352074E-01 0.23236270E+02</pdfrwt>
<pdfrwt beam="2">  1       21 0.34918965E-02 0.23236270E+02</pdfrwt>
<totfact> 0.23864309E+07</totfact>
</mgrwt>
</event>
<event>
 4    1  0.4353697E+006  0.2875186E+02  0.7546771E-02  0.1612310E+00
         21   -1    0    0  502  501  0.00000000000E+00  0.00000000000E+00  0.59495298352E+01  0.59495298352E+01  0.00000000000E+00 0. -1.
         21   -1    0    0  504  502 -0.00000000000E+00 -0.00000000000E+00 -0.32376040120E+03  0.32376040120E+03  0.00000000000E+00 0. -1.
         21    1    1    2  503  501  0.22451061213E+02 -0.17961612536E+02 -0.34351679748E+02  0.44796289757E+02  0.00000000000E+00 0. -1.
         21    1    1    2  504  503 -0.22451061213E+02  0.17961612536E+02 -0.28345919162E+03  0.28491364128E+03  0.00000000000E+00 0. -1.
<mgrwt>
<rscale>  2 0.28751864E+02</rscale>
<asrwt>0</asrwt>
<pdfrwt beam="1">  1       21 0.91531211E-03 0.28751864E+02</pdfrwt>
<pdfrwt beam="2">  1       21 0.49809302E-01 0.28751864E+02</pdfrwt>
<totfact> 0.13724737E+07</totfact>
</mgrwt>
</event>
<event>
 4    1  0.4353697E+006  0.2929217E+02  0.7546771E-02  0.1606047E+00
         21   -1    0    0  502  501  0.00000000000E+00  0.00000000000E+00  0.71751521609E+02  0.71751521609E+02  0.00000000000E+00 0. -1.
         21   -1    0    0  503  502 -0.00000000000E+00 -0.00000000000E+00 -0.12456323950E+02  0.12456323950E+02  0.00000000000E+00 0. -1.
         21    1    1    2  503  504 -0.16404076871E+02 -0.24268031602E+02  0.21229323967E+02  0.36176170222E+02  0.00000000000E+00 0. -1.
         21    1    1    2  504  501  0.16404076871E+02  0.24268031602E+02  0.38065873692E+02  0.48031675338E+02  0.00000000000E+00 0. -1.
<mgrwt>
<rscale>  2 0.29292168E+02</rscale>
<asrwt>0</asrwt>
<pdfrwt beam="1">  1       21 0.11038695E-01 0.29292168E+02</pdfrwt>
<pdfrwt beam="2">  1       21 0.19163576E-02 0.29292168E+02</pdfrwt>
<totfact> 0.67111618E+07</totfact>
</mgrwt>
</event>
<event>
 4    1  0.4353697E+006  0.2530712E+02  0.7546771E-02  0.1656629E+00
         21   -1    0    0  504  501  0.00000000000E+00  0.00000000000E+00  0.92297684495E+00  0.92297684495E+00  0.00000000000E+00 0. -1.
         21   -1    0    0  503  502 -0.00000000000E+00 -0.00000000000E+00 -0.78726352994E+03  0.78726352994E+03  0.00000000000E+00 0. -1.
         21    1    1    2  503  501  0.10257150675E+02 -0.23135276922E+02 -0.25745264561E+03  0.25869347674E+03  0.00000000000E+00 0. -1.
         21    1    1    2  504  502 -0.10257150675E+02  0.23135276922E+02 -0.52888790748E+03  0.52949303004E+03  0.00000000000E+00 0. -1.
<mgrwt>
<rscale>  2 0.25307117E+02</rscale>
<asrwt>0</asrwt>
<pdfrwt beam="1">  1       21 0.14199584E-03 0.25307117E+02</pdfrwt>
<pdfrwt beam="2">  1       21 0.12111798E+00 0.25307117E+02</pdfrwt>
<totfact> 0.32011843E+07</totfact>
</mgrwt>
</event>
<event>
 4    1  0.4353697E+006  0.2110289E+02  0.7546771E-02  0.1724245E+00
         21   -1    0    0  504  501  0.00000000000E+00  0.00000000000E+00  0.31861160486E+02  0.31861160486E+02  0.00000000000E+00 0.  1.
         21   -1    0    0  503  502 -0.00000000000E+00 -0.00000000000E+00 -0.21832741263E+02  0.21832741263E+02  0.00000000000E+00 0. -1.
         21    1    1    2  503  501 -0.10516667169E+02 -0.18295672480E+02  0.21117961204E+02  0.29854651316E+02  0.00000000000E+00 0.  1.
         21    1    1    2  504  502  0.10516667169E+02  0.18295672480E+02 -0.11089541980E+02  0.23839250432E+02  0.00000000000E+00 0. -1.
<mgrwt>
<rscale>  2 0.21102889E+02</rscale>
<asrwt>0</asrwt>
<pdfrwt beam="1">  1       21 0.49017170E-02 0.21102889E+02</pdfrwt>
<pdfrwt beam="2">  1       21 0.33588833E-02 0.21102889E+02</pdfrwt>
<totfact> 0.96722764E+07</totfact>
</mgrwt>
</event>
<event>
 4    1  0.4353697E+006  0.2555313E+02  0.7546771E-02  0.1653182E+00
         21   -1    0    0  504  501  0.00000000000E+00  0.00000000000E+00  0.14788829445E+03  0.14788829445E+03  0.00000000000E+00 0. -1.
         21   -1    0    0  503  502 -0.00000000000E+00 -0.00000000000E+00 -0.44260275099E+01  0.44260275099E+01  0.00000000000E+00 0. -1.
         21    1    1    2  503  501 -0.25396900429E+02  0.28213587147E+01  0.67971694635E+02  0.72616209540E+02  0.00000000000E+00 0. -1.
         21    1    1    2  504  502  0.25396900429E+02 -0.28213587147E+01  0.75490572307E+02  0.79698112422E+02  0.00000000000E+00 0. -1.
<mgrwt>
<rscale>  2 0.25553133E+02</rscale>
<asrwt>0</asrwt>
<pdfrwt beam="1">  1       21 0.22752042E-01 0.25553133E+02</pdfrwt>
<pdfrwt beam="2">  1       21 0.68092742E-03 0.25553133E+02</pdfrwt>
<totfact> 0.89645863E+07</totfact>
</mgrwt>
</event>
<event>
 4    1  0.4353697E+006  0.2428496E+02  0.7546771E-02  0.1671490E+00
         21   -1    0    0  503  501  0.00000000000E+00  0.00000000000E+00  0.11589828343E+02  0.11589828343E+02  0.00000000000E+00 0.  1.
         21   -1    0    0  504  502 -0.00000000000E+00 -0.00000000000E+00 -0.54933243782E+02  0.54933243782E+02  0.00000000000E+00 0. -1.
         21    1    1    2  503  502 -0.57923667043E+01 -0.23584061599E+02 -0.12643390251E+02  0.27379094042E+02  0.00000000000E+00 0.  1.
         21    1    1    2  504  501  0.57923667043E+01  0.23584061599E+02 -0.30700025189E+02  0.39143978082E+02  0.00000000000E+00 0. -1.
<mgrwt>
<rscale>  2 0.24284964E+02</rscale>
<asrwt>0</asrwt>
<pdfrwt beam="1">  1       21 0.17830505E-02 0.24284964E+02</pdfrwt>
<pdfrwt beam="2">  1       21 0.84512684E-02 0.24284964E+02</pdfrwt>
<totfact> 0.11137307E+08</totfact>
</mgrwt>
</event>
<event>
 4    1  0.4353697E+006  0.2301766E+02  0.7546771E-02  0.1691224E+00
         21   -1    0    0  504  501  0.00000000000E+00  0.00000000000E+00  0.60861815111E+02  0.60861815111E+02  0.00000000000E+00 0.  1.
         21   -1    0    0  501  502 -0.00000000000E+00 -0.00000000000E+00 -0.12152394773E+02  0.12152394773E+02  0.00000000000E+00 0.  1.
         21    1    1    2  503  502  0.10981555177E+02 -0.20229140872E+02  0.49109164698E+01  0.23535713185E+02  0.00000000000E+00 0.  1.
         21    1    1    2  504  503 -0.10981555177E+02  0.20229140872E+02  0.43798503867E+02  0.49478496699E+02  0.00000000000E+00 0.  1.
<mgrwt>
<rscale>  2 0.23017660E+02</rscale>
<asrwt>0</asrwt>
<pdfrwt beam="1">  1       21 0.93633560E-02 0.23017660E+02</pdfrwt>
<pdfrwt beam="2">  1       21 0.18695992E-02 0.23017660E+02</pdfrwt>
<totfact> 0.86196418E+07</totfact>
</mgrwt>
</event>
<event>
 4    1  0.4353697E+006  0.2110688E+02  0.7546771E-02  0.1724172E+00
         21   -1    0    0  503  501  0.00000000000E+00  0.00000000000E+00  0.85541898511E+03  0.85541898511E+03  0.00000000000E+00 0.  1.
         21   -1    0    0  504  502 -0.00000000000E+00 -0.00000000000E+00 -0.59603787910E+00  0.59603787910E+00  0.00000000000E+00 0.  1.
         21    1    1    2  503  502  0.20382063032E+02  0.54837933620E+01  0.57947972455E+03  0.57986399410E+03  0.00000000000E+00 0.  1.
         21    1    1    2  504  501 -0.20382063032E+02 -0.54837933620E+01  0.27534322268E+03  0.27615102889E+03  0.00000000000E+00 0.  1.
<mgrwt>
<rscale>  2 0.21106882E+02</rscale>
<asrwt>0</asrwt>
<pdfrwt beam="1">  1       21 0.13160194E+00 0.21106882E+02</pdfrwt>
<pdfrwt beam="2">  1       21 0.91698820E-04 0.21106882E+02</pdfrwt>
<totfact> 0.47650810E+07</totfact>
</mgrwt>
</event>
<event>
 4    1  0.4353697E+006  0.2028577E+02  0.7546771E-02  0.1739704E+00
         21   -1    0    0  504  501  0.00000000000E+00  0.00000000000E+00  0.47560258774E+03  0.47560258774E+03  0.00000000000E+00 0.  1.
         21   -1    0    0  501  502 -0.00000000000E+00 -0.00000000000E+00 -0.10123727035E+01  0.10123727035E+01  0.00000000000E+00 0. -1.
         21    1    1    2  503  502 -0.13032959548E+01 -0.20243863220E+02  0.14644713155E+03  0.14784544267E+03  0.00000000000E+00 0. -1.
         21    1    1    2  504  503  0.13032959548E+01  0.20243863220E+02  0.32814308349E+03  0.32876951777E+03  0.00000000000E+00 0.  1.
<mgrwt>
<rscale>  2 0.20285773E+02</rscale>
<asrwt>0</asrwt>
<pdfrwt beam="1">  1       21 0.73169450E-01 0.20285773E+02</pdfrwt>
<pdfrwt beam="2">  1       21 0.15575003E-03 0.20285773E+02</pdfrwt>
<totfact> 0.79362378E+07</totfact>
</mgrwt>
</event>
<event>
 4    1  0.4353697E+006  0.2234222E+02  0.7546771E-02  0.1702400E+00
         21   -1    0    0  504  501  0.00000000000E+00  0.00000000000E+00  0.11898742745E+01  0.11898742745E+01  0.00000000000E+00 0. -1.
         21   -1    0    0  503  502 -0.00000000000E+00 -0.00000000000E+00 -0.53943156999E+03  0.53943156999E+03  0.00000000000E+00 0. -1.
         21    1    1    2  503  501  0.20727853891E+02  0.83385120709E+01 -0.39656728083E+03  0.39719615171E+03  0.00000000000E+00 0. -1.
         21    1    1    2  504  502 -0.20727853891E+02 -0.83385120709E+01 -0.14167441489E+03  0.14342529256E+03  0.00000000000E+00 0. -1.
<mgrwt>
<rscale>  2 0.22342218E+02</rscale>
<asrwt>0</asrwt>
<pdfrwt beam="1">  1       21 0.18305780E-03 0.22342218E+02</pdfrwt>
<pdfrwt beam="2">  1       21 0.82989374E-01 0.22342218E+02</pdfrwt>
<totfact> 0.49576911E+07</totfact>
</mgrwt>
</event>
<event>
 4    1  0.4353697E+006  0.2192468E+02  0.7546771E-02  0.1709558E+00
         21   -1    0    0  502  501  0.00000000000E+00  0.00000000000E+00  0.29961617208E+03  0.29961617208E+03  0.00000000000E+00 0.  1.
         21   -1    0    0  504  502 -0.00000000000E+00 -0.00000000000E+00 -0.10608402821E+02  0.10608402821E+02  0.00000000000E+00 0.  1.
         21    1    1    2  503  501  0.13531894961E+02 -0.17250484511E+02  0.28740645548E+03  0.28824149952E+03  0.00000000000E+00 0.  1.
         21    1    1    2  504  503 -0.13531894961E+02  0.17250484511E+02  0.16013137786E+01  0.21983075375E+02  0.00000000000E+00 0.  1.
<mgrwt>
<rscale>  2 0.21924676E+02</rscale>
<asrwt>0</asrwt>
<pdfrwt beam="1">  1       21 0.46094789E-01 0.21924676E+02</pdfrwt>
<pdfrwt beam="2">  1       21 0.16320622E-02 0.21924676E+02</pdfrwt>
<totfact> 0.63447488E+06</totfact>
</mgrwt>
</event>
<event>
 4    1  0.4353697E+006  0.2908905E+02  0.7546771E-02  0.1608382E+00
         21   -1    0    0  503  501  0.00000000000E+00  0.00000000000E+00  0.86961790680E+03  0.86961790680E+03  0.00000000000E+00 0.  1.
         21   -1    0    0  504  502 -0.00000000000E+00 -0.00000000000E+00 -0.24946577190E+01  0.24946577190E+01  0.00000000000E+00 0.  1.
         21    1    1    2  503  502  0.25383375447E+02 -0.14207637981E+02  0.77411868557E+03  0.77466503217E+03  0.00000000000E+00 0.  1.
         21    1    1    2  504  501 -0.25383375447E+02  0.14207637981E+02  0.93004563514E+02  0.97447532347E+02  0.00000000000E+00 0.  1.
<mgrwt>
<rscale>  2 0.29089048E+02</rscale>
<asrwt>0</asrwt>
<pdfrwt beam="1">  1       21 0.13378713E+00 0.29089048E+02</pdfrwt>
<pdfrwt beam="2">  1       21 0.38379419E-03 0.29089048E+02</pdfrwt>
<totfact> 0.60999105E+06</totfact>
</mgrwt>
</event>
<event>
 4    1  0.4353697E+006  0.3003321E+02  0.7546771E-02  0.1597722E+00
         21   -1    0    0  503  501  0.00000000000E+00  0.00000000000E+00  0.20826822423E+02  0.20826822423E+02  0.00000000000E+00 0.  1.
         21   -1    0    0  504  502 -0.00000000000E+00 -0.00000000000E+00 -0.17455159956E+03  0.17455159956E+03  0.00000000000E+00 0.  1.
         21    1    1    2  503  502 -0.24944262369E+02  0.16726552248E+02  0.78450805963E+01  0.31040925644E+02  0.00000000000E+00 0.  1.
         21    1    1    2  504  501  0.24944262369E+02 -0.16726552248E+02 -0.16156985774E+03  0.16433749634E+03  0.00000000000E+00 0.  1.
<mgrwt>
<rscale>  2 0.30033211E+02</rscale>
<asrwt>0</asrwt>
<pdfrwt beam="1">  1       21 0.32041266E-02 0.30033211E+02</pdfrwt>
<pdfrwt beam="2">  1       21 0.26854091E-01 0.30033211E+02</pdfrwt>
<totfact> 0.64196292E+06</totfact>
</mgrwt>
</event>
<event>
 4    1  0.4353697E+006  0.2603483E+02  0.7546771E-02  0.1646568E+00
         21   -1    0    0  504  501  0.00000000000E+00  0.00000000000E+00  0.57590928417E+03  0.57590928417E+03  0.00000000000E+00 0.  1.
         21   -1    0    0  503  502 -0.00000000000E+00 -0.00000000000E+00 -0.35566008452E+01  0.35566008452E+01  0.00000000000E+00 0.  1.
         21    1    1    2  503  501  0.13541640201E+02  0.22235923385E+02  0.52317047026E+03  0.52381786267E+03  0.00000000000E+00 0.  1.
         21    1    1    2  504  502 -0.13541640201E+02 -0.22235923385E+02  0.49182213063E+02  0.55648022336E+02  0.00000000000E+00 0.  1.
<mgrwt>
<rscale>  2 0.26034829E+02</rscale>
<asrwt>0</asrwt>
<pdfrwt beam="1">  1       21 0.88601354E-01 0.26034829E+02</pdfrwt>
<pdfrwt beam="2">  1       21 0.54716982E-03 0.26034829E+02</pdfrwt>
<totfact> 0.89610569E+06</totfact>
</mgrwt>
</event>
<event>
 4    1  0.4353697E+006  0.4113899E+02  0.7546771E-02  0.1499993E+00
         21   -1    0    0  504  501  0.00000000000E+00  0.00000000000E+00  0.11989064224E+02  0.11989064224E+02  0.00000000000E+00 0.  1.
         21   -1    0    0  503  502 -0.00000000000E+00 -0.00000000000E+00 -0.14260807848E+03  0.14260807848E+03  0.00000000000E+00 0.  1.
         21    1    1    2  503  501 -0.40463832019E+02  0.74225796697E+01 -0.73089756283E+02  0.83872098246E+02  0.00000000000E+00 0.  1.
         21    1    1    2  504  502  0.40463832019E+02 -0.74225796697E+01 -0.57529257974E+02  0.70725044458E+02  0.00000000000E+00 0.  1.
<mgrwt>
<rscale>  2 0.41138989E+02</rscale>
<asrwt>0</asrwt>
<pdfrwt beam="1">  1       21 0.18444714E-02 0.41138989E+02</pdfrwt>
<pdfrwt beam="2">  1       21 0.21939704E-01 0.41138989E+02</pdfrwt>
<totfact> 0.23062028E+07</totfact>
</mgrwt>
</event>
<event>
 4    1  0.4353697E+006  0.2273475E+02  0.7546771E-02  0.1695846E+00
         21   -1    0    0  502  501  0.00000000000E+00  0.00000000000E+00  0.69581209347E+02  0.69581209347E+02  0.00000000000E+00 0.  1.
         21   -1    0    0  504  502 -0.00000000000E+00 -0.00000000000E+00 -0.13723561532E+02  0.13723561532E+02  0.00000000000E+00 0. -1.
         21    1    1    2  503  501 -0.17831173818E+02 -0.14103832385E+02  0.56139530873E+02  0.60568273661E+02  0.00000000000E+00 0.  1.
         21    1    1    2  504  503  0.17831173818E+02  0.14103832385E+02 -0.28188305791E+00  0.22736497218E+02  0.00000000000E+00 0. -1.
<mgrwt>
<rscale>  2 0.22734750E+02</rscale>
<asrwt>0</asrwt>
<pdfrwt beam="1">  1       21 0.10704801E-01 0.22734750E+02</pdfrwt>
<pdfrwt beam="2">  1       21 0.21113172E-02 0.22734750E+02</pdfrwt>
<totfact> 0.57130194E+07</totfact>
</mgrwt>
</event>
<event>
 4    1  0.4353697E+006  0.2831147E+02  0.7546771E-02  0.1617540E+00
         21   -1    0    0  503  501  0.00000000000E+00  0.00000000000E+00  0.96268842833E+01  0.96268842833E+01  0.00000000000E+00 0.  1.
         21   -1    0    0  501  502 -0.00000000000E+00 -0.00000000000E+00 -0.17790694533E+03  0.17790694533E+03  0.00000000000E+00 0.  1.
         21    1    1    2  503  504 -0.28296584468E+02 -0.91786842176E+00 -0.15748025682E+02  0.32396596856E+02  0.00000000000E+00 0.  1.
         21    1    1    2  504  502  0.28296584468E+02  0.91786842176E+00 -0.15253203536E+03  0.15513723276E+03  0.00000000000E+00 0.  1.
<mgrwt>
<rscale>  2 0.28311467E+02</rscale>
<asrwt>0</asrwt>
<pdfrwt beam="1">  1       21 0.14810593E-02 0.28311467E+02</pdfrwt>
<pdfrwt beam="2">  1       21 0.27370297E-01 0.28311467E+02</pdfrwt>
<totfact> 0.20349749E+07</totfact>
</mgrwt>
</event>
<event>
 4    1  0.4353697E+006  0.4093908E+02  0.7546771E-02  0.1501412E+00
         21   -1    0    0  504  501  0.00000000000E+00  0.00000000000E+00  0.21865376491E+02  0.21865376491E+02  0.00000000000E+00 0. -1.
         21   -1    0    0  503  502 -0.00000000000E+00 -0.00000000000E+00 -0.33926928401E+03  0.33926928401E+03  0.00000000000E+00 0. -1.
         21    1    1    2  503  501  0.35049853202E+02  0.21154584477E+02  0.16339137227E+00  0.40939410726E+02  0.00000000000E+00 0. -1.
         21    1    1    2  504  502 -0.35049853202E+02 -0.21154584477E+02 -0.31756729889E+03  0.32019524978E+03  0.00000000000E+00 0. -1.
<mgrwt>
<rscale>  2 0.40939085E+02</rscale>
<asrwt>0</asrwt>
<pdfrwt beam="1">  1       21 0.33639040E-02 0.40939085E+02</pdfrwt>
<pdfrwt beam="2">  1       21 0.52195275E-01 0.40939085E+02</pdfrwt>
<totfact> 0.17323923E+06</totfact>
</mgrwt>
</event>
<event>
 4    1  0.4353697E+006  0.3571994E+02  0.7546771E-02  0.1542299E+00
         21   -1    0    0  503  501  0.00000000000E+00  0.00000000000E+00  0.15197057475E+04  0.15197057475E+04  0.00000000000E+00 0.  1.
         21   -1    0    0  504  502 -0.00000000000E+00 -0.00000000000E+00 -0.25445869162E+01  0.25445869162E+01  0.00000000000E+00 0.  1.
         21    1    1    2  503  502  0.35696529211E+02  0.12930748961E+01  0.13554831804E+03  0.14017582090E+03  0.00000000000E+00 0.  1.
         21    1    1    2  504  501 -0.35696529211E+02 -0.12930748961E+01  0.13816128426E+04  0.13820745135E+04  0.00000000000E+00 0.  1.
<mgrwt>
<rscale>  2 0.35719942E+02</rscale>
<asrwt>0</asrwt>
<pdfrwt beam="1">  1       21 0.23380016E+00 0.35719942E+02</pdfrwt>
<pdfrwt beam="2">  1       21 0.39147613E-03 0.35719942E+02</pdfrwt>
<totfact> 0.14384748E+06</totfact>
</mgrwt>
</event>
<event>
 4    1  0.4353697E+006  0.2444771E+02  0.7546771E-02  0.1669064E+00
         21   -1    0    0  502  501  0.00000000000E+00  0.00000000000E+00  0.77422462330E+02  0.77422462330E+02  0.00000000000E+00 0. -1.
         21   -1    0    0  504  502 -0.00000000000E+00 -0.00000000000E+00 -0.17671114649E+02  0.17671114649E+02  0.00000000000E+00 0.  1.
         21    1    1    2  503  501 -0.23156477480E+02  0.78401672982E+01  0.65555941770E+02  0.69966221664E+02  0.00000000000E+00 0. -1.
         21    1    1    2  504  503  0.23156477480E+02 -0.78401672982E+01 -0.58045940892E+01  0.25127355314E+02  0.00000000000E+00 0.  1.
<mgrwt>
<rscale>  2 0.24447713E+02</rscale>
<asrwt>0</asrwt>
<pdfrwt beam="1">  1       21 0.11911148E-01 0.24447713E+02</pdfrwt>
<pdfrwt beam="2">  1       21 0.27186331E-02 0.24447713E+02</pdfrwt>
<totfact> 0.32937500E+07</totfact>
</mgrwt>
</event>
<event>
 4    1  0.4353697E+006  0.2221305E+02  0.7546771E-02  0.1704593E+00
         21   -1    0    0  503  501  0.00000000000E+00  0.00000000000E+00  0.81172971443E+01  0.81172971443E+01  0.00000000000E+00 0.  1.
         21   -1    0    0  504  502 -0.00000000000E+00 -0.00000000000E+00 -0.23815373253E+03  0.23815373253E+03  0.00000000000E+00 0. -1.
         21    1    1    2  503  502 -0.20999988109E+02  0.72401785411E+01 -0.87528643364E+01  0.23875349630E+02  0.00000000000E+00 0.  1.
         21    1    1    2  504  501  0.20999988109E+02 -0.72401785411E+01 -0.22128357105E+03  0.22239568004E+03  0.00000000000E+00 0. -1.
<mgrwt>
<rscale>  2 0.22213052E+02</rscale>
<asrwt>0</asrwt>
<pdfrwt beam="1">  1       21 0.12488147E-02 0.22213052E+02</pdfrwt>
<pdfrwt beam="2">  1       21 0.36639043E-01 0.22213052E+02</pdfrwt>
<totfact> 0.14718439E+07</totfact>
</mgrwt>
</event>
<event>
 4    1  0.4353697E+006  0.2960525E+02  0.7546771E-02  0.1602493E+00
         21   -1    0    0  503  501  0.00000000000E+00  0.00000000000E+00  0.44948575523E+03  0.44948575523E+03  0.00000000000E+00 0. -1.
         21   -1    0    0  501  502 -0.00000000000E+00 -0.00000000000E+00 -0.29925419909E+01  0.29925419909E+01  0.00000000000E+00 0. -1.
         21    1    1    2  503  504 -0.53123375210E+01 -0.29124733396E+02  0.35678512351E+03  0.35801130622E+03  0.00000000000E+00 0. -1.
         21    1    1    2  504  502  0.53123375210E+01  0.29124733396E+02  0.89708089726E+02  0.94466990995E+02  0.00000000000E+00 0. -1.
<mgrwt>
<rscale>  2 0.29605253E+02</rscale>
<asrwt>0</asrwt>
<pdfrwt beam="1">  1       21 0.69151601E-01 0.29605253E+02</pdfrwt>
<pdfrwt beam="2">  1       21 0.46039143E-03 0.29605253E+02</pdfrwt>
<totfact> 0.19927273E+07</totfact>
</mgrwt>
</event>
<event>
 4    1  0.4353697E+006  0.2254613E+02  0.7546771E-02  0.1698975E+00
         21   -1    0    0  504  501  0.00000000000E+00  0.00000000000E+00  0.34117938620E+01  0.34117938620E+01  0.00000000000E+00 0.  1.
         21   -1    0    0  503  502 -0.00000000000E+00 -0.00000000000E+00 -0.31852106353E+03  0.31852106353E+03  0.00000000000E+00 0. -1.
         21    1    1    2  503  501 -0.19695893084E+02  0.10972684504E+02 -0.40121932343E+02  0.46022792881E+02  0.00000000000E+00 0.  1.
         21    1    1    2  504  502  0.19695893084E+02 -0.10972684504E+02 -0.27498733732E+03  0.27591006451E+03  0.00000000000E+00 0. -1.
<mgrwt>
<rscale>  2 0.22546131E+02</rscale>
<asrwt>0</asrwt>
<pdfrwt beam="1">  1       21 0.52489154E-03 0.22546131E+02</pdfrwt>
<pdfrwt beam="2">  1       21 0.49003224E-01 0.22546131E+02</pdfrwt>
<totfact> 0.30997892E+07</totfact>
</mgrwt>
</event>
<event>
 4    1  0.4353697E+006  0.2639734E+02  0.7546771E-02  0.1641706E+00
         21   -1    0    0  504  501  0.00000000000E+00  0.00000000000E+00  0.92319703900E+02  0.92319703900E+02  0.00000000000E+00 0.  1.
         21   -1    0    0  503  502 -0.00000000000E+00 -0.00000000000E+00 -0.82512007063E+01  0.82512007063E+01  0.00000000000E+00 0.  1.
         21    1    1    2  503  501 -0.11259984102E+01  0.26373318841E+02  0.27353288081E+02  0.38013447462E+02  0.00000000000E+00 0.  1.
         21    1    1    2  504  502  0.11259984102E+01 -0.26373318841E+02  0.56715215112E+02  0.62557457144E+02  0.00000000000E+00 0.  1.
<mgrwt>
<rscale>  2 0.26397345E+02</rscale>
<asrwt>0</asrwt>
<pdfrwt beam="1">  1       21 0.14203031E-01 0.26397345E+02</pdfrwt>
<pdfrwt beam="2">  1       21 0.12694156E-02 0.26397345E+02</pdfrwt>
<totfact> 0.80259936E+07</totfact>
</mgrwt>
</event>
<event>
 4    1  0.4353697E+006  0.2187802E+02  0.7546771E-02  0.1710370E+00
         21   -1    0    0  504  501  0.00000000000E+00  0.00000000000E+00  0.55956649403E+02  0.55956649403E+02  0.00000000000E+00 0.  1.
         21   -1    0    0  503  502 -0.00000000000E+00 -0.00000000000E+00 -0.89067330863E+01  0.89067330863E+01  0.00000000000E+00 0.  1.
         21    1    1    2  503  501  0.21005280153E+02  0.61176613620E+01  0.29979941461E+02  0.37113938956E+02  0.00000000000E+00 0.  1.
         21    1    1    2  504  502 -0.21005280153E+02 -0.61176613620E+01  0.17069974857E+02  0.27749443534E+02  0.00000000000E+00 0.  1.
<mgrwt>
<rscale>  2 0.21878016E+02</rscale>
<asrwt>0</asrwt>
<pdfrwt beam="1">  1       21 0.86087151E-02 0.21878016E+02</pdfrwt>
<pdfrwt beam="2">  1       21 0.13702667E-02 0.21878016E+02</pdfrwt>
<totfact> 0.15642047E+08</totfact>
</mgrwt>
</event>
<event>
 4    1  0.4353697E+006  0.2527967E+02  0.7546771E-02  0.1657017E+00
         21   -1    0    0  502  501  0.00000000000E+00  0.00000000000E+00  0.13393757004E+02  0.13393757004E+02  0.00000000000E+00 0. -1.
         21   -1    0    0  504  502 -0.00000000000E+00 -0.00000000000E+00 -0.11577822531E+03  0.11577822531E+03  0.00000000000E+00 0. -1.
         21    1    1    2  503  501  0.14908416450E+02 -0.20415695200E+02 -0.16715885523E+01  0.25334871222E+02  0.00000000000E+00 0. -1.
         21    1    1    2  504  503 -0.14908416450E+02  0.20415695200E+02 -0.10071287976E+03  0.10383711109E+03  0.00000000000E+00 0. -1.
<mgrwt>
<rscale>  2 0.25279666E+02</rscale>
<asrwt>0</asrwt>
<pdfrwt beam="1">  1       21 0.20605781E-02 0.25279666E+02</pdfrwt>
<pdfrwt beam="2">  1       21 0.17812034E-01 0.25279666E+02</pdfrwt>
<totfact> 0.25658017E+07</totfact>
</mgrwt>
</event>
<event>
 4    1  0.4353697E+006  0.4921359E+02  0.7546771E-02  0.1449630E+00
         21   -1    0    0  503  501  0.00000000000E+00  0.00000000000E+00  0.48896571256E+03  0.48896571256E+03  0.00000000000E+00 0.  1.
         21   -1    0    0  501  502 -0.00000000000E+00 -0.00000000000E+00 -0.26750828911E+02  0.26750828911E+02  0.00000000000E+00 0.  1.
         21    1    1    2  503  504 -0.45897707924E+02 -0.17758873640E+02  0.46387176505E+03  0.46647507072E+03  0.00000000000E+00 0.  1.
         21    1    1    2  504  502  0.45897707924E+02  0.17758873640E+02 -0.16568814098E+01  0.49241470750E+02  0.00000000000E+00 0.  1.
<mgrwt>
<rscale>  2 0.49213587E+02</rscale>
<asrwt>0</asrwt>
<pdfrwt beam="1">  1       21 0.75225488E-01 0.49213587E+02</pdfrwt>
<pdfrwt beam="2">  1       21 0.41155125E-02 0.49213587E+02</pdfrwt>
<totfact> 0.59293094E+05</totfact>
</mgrwt>
</event>
<event>
 4    1  0.4353697E+006  0.2113901E+02  0.7546771E-02  0.1723582E+00
         21   -1    0    0  502  501  0.00000000000E+00  0.00000000000E+00  0.14127417683E+02  0.14127417683E+02  0.00000000000E+00 0.  1.
         21   -1    0    0  504  502 -0.00000000000E+00 -0.00000000000E+00 -0.40177627496E+02  0.40177627496E+02  0.00000000000E+00 0.  1.
         21    1    1    2  503  501 -0.21101386483E+02 -0.12605894740E+01 -0.50155158284E+00  0.21144955694E+02  0.00000000000E+00 0.  1.
         21    1    1    2  504  503  0.21101386483E+02  0.12605894740E+01 -0.25548658229E+02  0.33160089485E+02  0.00000000000E+00 0.  1.
<mgrwt>
<rscale>  2 0.21139007E+02</rscale>
<asrwt>0</asrwt>
<pdfrwt beam="1">  1       21 0.21734489E-02 0.21139007E+02</pdfrwt>
<pdfrwt beam="2">  1       21 0.61811733E-02 0.21139007E+02</pdfrwt>
<totfact> 0.13106611E+08</totfact>
</mgrwt>
</event>
<event>
 4    1  0.4353697E+006  0.2524427E+02  0.7546771E-02  0.1657518E+00
         21   -1    0    0  502  501  0.00000000000E+00  0.00000000000E+00  0.10005220920E+03  0.10005220920E+03  0.00000000000E+00 0.  1.
         21   -1    0    0  504  502 -0.00000000000E+00 -0.00000000000E+00 -0.11878761789E+02  0.11878761789E+02  0.00000000000E+00 0. -1.
         21    1    1    2  503  501  0.46879887223E+01  0.24805156989E+02  0.82200776760E+02  0.85989771202E+02  0.00000000000E+00 0.  1.
         21    1    1    2  504  503 -0.46879887223E+01 -0.24805156989E+02  0.59726706461E+01  0.25941199782E+02  0.00000000000E+00 0. -1.
<mgrwt>
<rscale>  2 0.25244268E+02</rscale>
<asrwt>0</asrwt>
<pdfrwt beam="1">  1       21 0.15392647E-01 0.25244268E+02</pdfrwt>
<pdfrwt beam="2">  1       21 0.18275019E-02 0.25244268E+02</pdfrwt>
<totfact> 0.39674076E+07</totfact>
</mgrwt>
</event>
<event>
 4    1  0.4353697E+006  0.3213064E+02  0.7546771E-02  0.1575665E+00
         21   -1    0    0  502  501  0.00000000000E+00  0.00000000000E+00  0.54562927014E+02  0.54562927014E+02  0.00000000000E+00 0.  1.
         21   -1    0    0  504  502 -0.00000000000E+00 -0.00000000000E+00 -0.27826104419E+02  0.27826104419E+02  0.00000000000E+00 0.  1.
         21    1    1    2  503  501  0.31786564621E+02  0.46895839876E+01  0.36672705064E+02  0.48757206494E+02  0.00000000000E+00 0.  1.
         21    1    1    2  504  503 -0.31786564621E+02 -0.46895839876E+01 -0.99358824685E+01  0.33631824940E+02  0.00000000000E+00 0.  1.
<mgrwt>
<rscale>  2 0.32130638E+02</rscale>
<asrwt>0</asrwt>
<pdfrwt beam="1">  1       21 0.83942964E-02 0.32130638E+02</pdfrwt>
<pdfrwt beam="2">  1       21 0.42809392E-02 0.32130638E+02</pdfrwt>
<totfact> 0.30568453E+07</totfact>
</mgrwt>
</event>
<event>
 4    1  0.4353697E+006  0.2066161E+02  0.7546771E-02  0.1732482E+00
         21   -1    0    0  504  501  0.00000000000E+00  0.00000000000E+00  0.64543201685E+01  0.64543201685E+01  0.00000000000E+00 0. -1.
         21   -1    0    0  503  502 -0.00000000000E+00 -0.00000000000E+00 -0.17202062722E+03  0.17202062722E+03  0.00000000000E+00 0. -1.
         21    1    1    2  503  501  0.18428350140E+02 -0.93433402641E+01 -0.15279330397E+03  0.15418396751E+03  0.00000000000E+00 0. -1.
         21    1    1    2  504  502 -0.18428350140E+02  0.93433402641E+01 -0.12773003081E+02  0.24290979887E+02  0.00000000000E+00 0. -1.
<mgrwt>
<rscale>  2 0.20661609E+02</rscale>
<asrwt>0</asrwt>
<pdfrwt beam="1">  1       21 0.99297252E-03 0.20661609E+02</pdfrwt>
<pdfrwt beam="2">  1       21 0.26464707E-01 0.20661609E+02</pdfrwt>
<totfact> 0.36966970E+07</totfact>
</mgrwt>
</event>
<event>
 4    1  0.4353697E+006  0.2697251E+02  0.7546771E-02  0.1634186E+00
         21   -1    0    0  503  501  0.00000000000E+00  0.00000000000E+00  0.89084695689E+01  0.89084695689E+01  0.00000000000E+00 0. -1.
         21   -1    0    0  504  502 -0.00000000000E+00 -0.00000000000E+00 -0.91694747153E+02  0.91694747153E+02  0.00000000000E+00 0. -1.
         21    1    1    2  503  502 -0.21787737961E+02  0.15900016984E+02 -0.58028808930E+02  0.63991083218E+02  0.00000000000E+00 0. -1.
         21    1    1    2  504  501  0.21787737961E+02 -0.15900016984E+02 -0.24757468654E+02  0.36612133504E+02  0.00000000000E+00 0. -1.
<mgrwt>
<rscale>  2 0.26972506E+02</rscale>
<asrwt>0</asrwt>
<pdfrwt beam="1">  1       21 0.13705338E-02 0.26972506E+02</pdfrwt>
<pdfrwt beam="2">  1       21 0.14106884E-01 0.26972506E+02</pdfrwt>
<totfact> 0.72641826E+07</totfact>
</mgrwt>
</event>
<event>
 4    1  0.4353697E+006  0.2130530E+02  0.7546771E-02  0.1720551E+00
         21   -1    0    0  503  501  0.00000000000E+00  0.00000000000E+00  0.75019971077E+00  0.75019971077E+00  0.00000000000E+00 0.  1.
         21   -1    0    0  504  502 -0.00000000000E+00 -0.00000000000E+00 -0.77659254999E+03  0.77659254999E+03  0.00000000000E+00 0.  1.
         21    1    1    2  503  502 -0.20696030153E+02  0.50586737472E+01 -0.20525454942E+03  0.20635732578E+03  0.00000000000E+00 0.  1.
         21    1    1    2  504  501  0.20696030153E+02 -0.50586737472E+01 -0.57058780086E+03  0.57098542393E+03  0.00000000000E+00 0.  1.
<mgrwt>
<rscale>  2 0.21305301E+02</rscale>
<asrwt>0</asrwt>
<pdfrwt beam="1">  1       21 0.11541576E-03 0.21305301E+02</pdfrwt>
<pdfrwt beam="2">  1       21 0.11947534E+00 0.21305301E+02</pdfrwt>
<totfact> 0.42914685E+07</totfact>
</mgrwt>
</event>
<event>
 4    1  0.4353697E+006  0.2263032E+02  0.7546771E-02  0.1697574E+00
         21   -1    0    0  504  501  0.00000000000E+00  0.00000000000E+00  0.23074574272E+03  0.23074574272E+03  0.00000000000E+00 0.  1.
         21   -1    0    0  503  502 -0.00000000000E+00 -0.00000000000E+00 -0.10468280093E+02  0.10468280093E+02  0.00000000000E+00 0. -1.
         21    1    1    2  503  501 -0.12303063964E+02 -0.18993837459E+02  0.30778607132E+01  0.22838661758E+02  0.00000000000E+00 0. -1.
         21    1    1    2  504  502  0.12303063964E+02  0.18993837459E+02  0.21719960191E+03  0.21837536105E+03  0.00000000000E+00 0.  1.
<mgrwt>
<rscale>  2 0.22630317E+02</rscale>
<asrwt>0</asrwt>
<pdfrwt beam="1">  1       21 0.35499341E-01 0.22630317E+02</pdfrwt>
<pdfrwt beam="2">  1       21 0.16105048E-02 0.22630317E+02</pdfrwt>
<totfact> 0.10652601E+07</totfact>
</mgrwt>
</event>
<event>
 4    1  0.4353697E+006  0.2743837E+02  0.7546771E-02  0.1628262E+00
         21   -1    0    0  504  501  0.00000000000E+00  0.00000000000E+00  0.56381126961E+02  0.56381126961E+02  0.00000000000E+00 0. -1.
         21   -1    0    0  503  502 -0.00000000000E+00 -0.00000000000E+00 -0.26021684094E+02  0.26021684094E+02  0.00000000000E+00 0. -1.
         21    1    1    2  503  501 -0.17842367535E+02 -0.20845001725E+02  0.43927742902E+02  0.51792960647E+02  0.00000000000E+00 0. -1.
         21    1    1    2  504  502  0.17842367535E+02  0.20845001725E+02 -0.13568300034E+02  0.30609850408E+02  0.00000000000E+00 0. -1.
<mgrwt>
<rscale>  2 0.27438371E+02</rscale>
<asrwt>0</asrwt>
<pdfrwt beam="1">  1       21 0.86740195E-02 0.27438371E+02</pdfrwt>
<pdfrwt beam="2">  1       21 0.40033360E-02 0.27438371E+02</pdfrwt>
<totfact> 0.31188254E+07</totfact>
</mgrwt>
</event>
<event>
 4    1  0.4353697E+006  0.3752881E+02  0.7546771E-02  0.1527226E+00
         21   -1    0    0  504  501  0.00000000000E+00  0.00000000000E+00  0.61568481194E+03  0.61568481194E+03  0.00000000000E+00 0.  1.
         21   -1    0    0  501  502 -0.00000000000E+00 -0.00000000000E+00 -0.43679023380E+01  0.43679023380E+01  0.00000000000E+00 0.  1.
         21    1    1    2  503  502  0.13471208536E+02 -0.35027678818E+02  0.91699595200E+02  0.99081923188E+02  0.00000000000E+00 0.  1.
         21    1    1    2  504  503 -0.13471208536E+02  0.35027678818E+02  0.51961731440E+03  0.52097079109E+03  0.00000000000E+00 0.  1.
<mgrwt>
<rscale>  2 0.37528812E+02</rscale>
<asrwt>0</asrwt>
<pdfrwt beam="1">  1       21 0.94720672E-01 0.37528812E+02</pdfrwt>
<pdfrwt beam="2">  1       21 0.67198546E-03 0.37528812E+02</pdfrwt>
<totfact> 0.59650085E+06</totfact>
</mgrwt>
</event>
<event>
 4    1  0.4353697E+006  0.2548505E+02  0.7546771E-02  0.1654131E+00
         21   -1    0    0  504  501  0.00000000000E+00  0.00000000000E+00  0.24323032230E+02  0.24323032230E+02  0.00000000000E+00 0. -1.
         21   -1    0    0  503  502 -0.00000000000E+00 -0.00000000000E+00 -0.12050528289E+03  0.12050528289E+03  0.00000000000E+00 0. -1.
         21    1    1    2  503  501  0.22809894964E+02 -0.11366460516E+02  0.15798172315E+02  0.29984495684E+02  0.00000000000E+00 0. -1.
         21    1    1    2  504  502 -0.22809894964E+02  0.11366460516E+02 -0.11198042298E+03  0.11484381944E+03  0.00000000000E+00 0. -1.
<mgrwt>
<rscale>  2 0.25485049E+02</rscale>
<asrwt>0</asrwt>
<pdfrwt beam="1">  1       21 0.37420050E-02 0.25485049E+02</pdfrwt>
<pdfrwt beam="2">  1       21 0.18539274E-01 0.25485049E+02</pdfrwt>
<totfact> 0.94584694E+06</totfact>
</mgrwt>
</event>
<event>
 4    1  0.4353697E+006  0.2514414E+02  0.7546771E-02  0.1658940E+00
         21   -1    0    0  502  501  0.00000000000E+00  0.00000000000E+00  0.10863300016E+03  0.10863300016E+03  0.00000000000E+00 0. -1.
         21   -1    0    0  503  502 -0.00000000000E+00 -0.00000000000E+00 -0.71464363632E+01  0.71464363632E+01  0.00000000000E+00 0.  1.
         21    1    1    2  503  504 -0.23313082209E+02 -0.94195397301E+01  0.25801654377E+02  0.36027113393E+02  0.00000000000E+00 0.  1.
         21    1    1    2  504  501  0.23313082209E+02  0.94195397301E+01  0.75684909424E+02  0.79752323134E+02  0.00000000000E+00 0. -1.
<mgrwt>
<rscale>  2 0.25144135E+02</rscale>
<asrwt>0</asrwt>
<pdfrwt beam="1">  1       21 0.16712768E-01 0.25144135E+02</pdfrwt>
<pdfrwt beam="2">  1       21 0.10994518E-02 0.25144135E+02</pdfrwt>
<totfact> 0.74589792E+07</totfact>
</mgrwt>
</event>
<event>
 4    1  0.4353697E+006  0.3096440E+02  0.7546771E-02  0.1587667E+00
         21   -1    0    0  504  501  0.00000000000E+00  0.00000000000E+00  0.64326671535E+03  0.64326671535E+03  0.00000000000E+00 0. -1.
         21   -1    0    0  501  502 -0.00000000000E+00 -0.00000000000E+00 -0.19590137651E+02  0.19590137651E+02  0.00000000000E+00 0.  1.
         21    1    1    2  503  502 -0.16236298597E+02  0.26366202180E+02 -0.67324323682E+01  0.31687847120E+02  0.00000000000E+00 0.  1.
         21    1    1    2  504  503  0.16236298597E+02 -0.26366202180E+02  0.63040901007E+03  0.63116900588E+03  0.00000000000E+00 0. -1.
<mgrwt>
<rscale>  2 0.30964399E+02</rscale>
<asrwt>0</asrwt>
<pdfrwt beam="1">  1       21 0.98964094E-01 0.30964399E+02</pdfrwt>
<pdfrwt beam="2">  1       21 0.30138678E-02 0.30964399E+02</pdfrwt>
<totfact> 0.52993989E+05</totfact>
</mgrwt>
</event>
<event>
 4    1  0.4353697E+006  0.2088147E+02  0.7546771E-02  0.1728347E+00
         21   -1    0    0  503  501  0.00000000000E+00  0.00000000000E+00  0.22967118668E+01  0.22967118668E+01  0.00000000000E+00 0.  1.
         21   -1    0    0  504  502 -0.00000000000E+00 -0.00000000000E+00 -0.26872913280E+03  0.26872913280E+03  0.00000000000E+00 0.  1.
         21    1    1    2  503  502 -0.15308838537E-01  0.20881463914E+02 -0.20663350562E+03  0.20768592011E+03  0.00000000000E+00 0.  1.
         21    1    1    2  504  501  0.15308838537E-01 -0.20881463914E+02 -0.59798915319E+02  0.63339924556E+02  0.00000000000E+00 0.  1.
<mgrwt>
<rscale>  2 0.20881470E+02</rscale>
<asrwt>0</asrwt>
<pdfrwt beam="1">  1       21 0.35334017E-03 0.20881470E+02</pdfrwt>
<pdfrwt beam="2">  1       21 0.41342957E-01 0.20881470E+02</pdfrwt>
<totfact> 0.75225772E+07</totfact>
</mgrwt>
</event>
<event>
 4    1  0.4353697E+006  0.2734970E+02  0.7546771E-02  0.1629379E+00
         21   -1    0    0  504  501  0.00000000000E+00  0.00000000000E+00  0.85978797039E+01  0.85978797039E+01  0.00000000000E+00 0.  1.
         21   -1    0    0  503  502 -0.00000000000E+00 -0.00000000000E+00 -0.90072307064E+03  0.90072307064E+03  0.00000000000E+00 0.  1.
         21    1    1    2  503  501 -0.66652556149E+01 -0.26525092770E+02 -0.87820826280E+03  0.87863403020E+03  0.00000000000E+00 0.  1.
         21    1    1    2  504  502  0.66652556149E+01  0.26525092770E+02 -0.13916928130E+02  0.30686920136E+02  0.00000000000E+00 0.  1.
<mgrwt>
<rscale>  2 0.27349702E+02</rscale>
<asrwt>0</asrwt>
<pdfrwt beam="1">  1       21 0.13227511E-02 0.27349702E+02</pdfrwt>
<pdfrwt beam="2">  1       21 0.13857274E+00 0.27349702E+02</pdfrwt>
<totfact> 0.87445628E+05</totfact>
</mgrwt>
</event>
<event>
 4    1  0.4353697E+006  0.2290712E+02  0.7546771E-02  0.1693020E+00
         21   -1    0    0  503  501  0.00000000000E+00  0.00000000000E+00  0.21786346422E+01  0.21786346422E+01  0.00000000000E+00 0. -1.
         21   -1    0    0  504  502 -0.00000000000E+00 -0.00000000000E+00 -0.86660220816E+03  0.86660220816E+03  0.00000000000E+00 0. -1.
         21    1    1    2  503  502  0.22644653233E+02  0.34577145695E+01 -0.80133353618E+03  0.80166088362E+03  0.00000000000E+00 0. -1.
         21    1    1    2  504  501 -0.22644653233E+02 -0.34577145695E+01 -0.63090037334E+02  0.67119959184E+02  0.00000000000E+00 0. -1.
<mgrwt>
<rscale>  2 0.22907119E+02</rscale>
<asrwt>0</asrwt>
<pdfrwt beam="1">  1       21 0.33517356E-03 0.22907119E+02</pdfrwt>
<pdfrwt beam="2">  1       21 0.13332381E+00 0.22907119E+02</pdfrwt>
<totfact> 0.72774186E+06</totfact>
</mgrwt>
</event>
<event>
 4    1  0.4353697E+006  0.2392117E+02  0.7546771E-02  0.1676999E+00
         21   -1    0    0  503  501  0.00000000000E+00  0.00000000000E+00  0.16151743183E+03  0.16151743183E+03  0.00000000000E+00 0.  1.
         21   -1    0    0  504  502 -0.00000000000E+00 -0.00000000000E+00 -0.35457993872E+01  0.35457993872E+01  0.00000000000E+00 0.  1.
         21    1    1    2  503  502  0.19393902811E+02 -0.14003526983E+02  0.81390459048E+02  0.84832947952E+02  0.00000000000E+00 0.  1.
         21    1    1    2  504  501 -0.19393902811E+02  0.14003526983E+02  0.76581173393E+02  0.80230283263E+02  0.00000000000E+00 0.  1.
<mgrwt>
<rscale>  2 0.23921167E+02</rscale>
<asrwt>0</asrwt>
<pdfrwt beam="1">  1       21 0.24848830E-01 0.23921167E+02</pdfrwt>
<pdfrwt beam="2">  1       21 0.54550772E-03 0.23921167E+02</pdfrwt>
<totfact> 0.10473523E+08</totfact>
</mgrwt>
</event>
<event>
 4    1  0.4353697E+006  0.2035394E+02  0.7546771E-02  0.1738380E+00
         21   -1    0    0  503  501  0.00000000000E+00  0.00000000000E+00  0.92601190594E+02  0.92601190594E+02  0.00000000000E+00 0. -1.
         21   -1    0    0  504  502 -0.00000000000E+00 -0.00000000000E+00 -0.12691634012E+02  0.12691634012E+02  0.00000000000E+00 0. -1.
         21    1    1    2  503  502  0.92247717646E+01  0.18143501592E+02  0.82317864581E+02  0.84796897899E+02  0.00000000000E+00 0. -1.
         21    1    1    2  504  501 -0.92247717646E+01 -0.18143501592E+02 -0.24083079986E+01  0.20495926707E+02  0.00000000000E+00 0. -1.
<mgrwt>
<rscale>  2 0.20353945E+02</rscale>
<asrwt>0</asrwt>
<pdfrwt beam="1">  1       21 0.14246337E-01 0.20353945E+02</pdfrwt>
<pdfrwt beam="2">  1       21 0.19525591E-02 0.20353945E+02</pdfrwt>
<totfact> 0.38790720E+07</totfact>
</mgrwt>
</event>
<event>
 4    1  0.4353697E+006  0.2689726E+02  0.7546771E-02  0.1635157E+00
         21   -1    0    0  504  501  0.00000000000E+00  0.00000000000E+00  0.13615206380E+02  0.13615206380E+02  0.00000000000E+00 0. -1.
         21   -1    0    0  503  502 -0.00000000000E+00 -0.00000000000E+00 -0.56021832629E+02  0.56021832629E+02  0.00000000000E+00 0. -1.
         21    1    1    2  503  501 -0.25556243278E+02 -0.83869522215E+01 -0.13301259793E+02  0.30006433479E+02  0.00000000000E+00 0. -1.
         21    1    1    2  504  502  0.25556243278E+02  0.83869522215E+01 -0.29105366456E+02  0.39630605529E+02  0.00000000000E+00 0. -1.
<mgrwt>
<rscale>  2 0.26897259E+02</rscale>
<asrwt>0</asrwt>
<pdfrwt beam="1">  1       21 0.20946472E-02 0.26897259E+02</pdfrwt>
<pdfrwt beam="2">  1       21 0.86187434E-02 0.26897259E+02</pdfrwt>
<totfact> 0.86464041E+07</totfact>
</mgrwt>
</event>
<event>
 4    1  0.4353697E+006  0.2256964E+02  0.7546771E-02  0.1698583E+00
         21   -1    0    0  504  501  0.00000000000E+00  0.00000000000E+00  0.18718252279E+01  0.18718252279E+01  0.00000000000E+00 0. -1.
         21   -1    0    0  503  502 -0.00000000000E+00 -0.00000000000E+00 -0.31416928848E+03  0.31416928848E+03  0.00000000000E+00 0. -1.
         21    1    1    2  503  501 -0.51631752710E+01 -0.21971121372E+02 -0.21394971724E+03  0.21513686355E+03  0.00000000000E+00 0. -1.
         21    1    1    2  504  502  0.51631752710E+01  0.21971121372E+02 -0.98347746011E+02  0.10090425015E+03  0.00000000000E+00 0. -1.
<mgrwt>
<rscale>  2 0.22569638E+02</rscale>
<asrwt>0</asrwt>
<pdfrwt beam="1">  1       21 0.28797321E-03 0.22569638E+02</pdfrwt>
<pdfrwt beam="2">  1       21 0.48333720E-01 0.22569638E+02</pdfrwt>
<totfact> 0.76730220E+07</totfact>
</mgrwt>
</event>
<event>
 4    1  0.4353697E+006  0.2210714E+02  0.7546771E-02  0.1706406E+00
         21   -1    0    0  504  501  0.00000000000E+00  0.00000000000E+00  0.60707472853E+03  0.60707472853E+03  0.00000000000E+00 0. -1.
         21   -1    0    0  503  502 -0.00000000000E+00 -0.00000000000E+00 -0.25261767267E+01  0.25261767267E+01  0.00000000000E+00 0. -1.
         21    1    1    2  503  501 -0.21983297578E+02  0.23367279759E+01  0.55386239821E+03  0.55430342036E+03  0.00000000000E+00 0. -1.
         21    1    1    2  504  502  0.21983297578E+02 -0.23367279759E+01  0.50686153595E+02  0.55297484901E+02  0.00000000000E+00 0. -1.
<mgrwt>
<rscale>  2 0.22107141E+02</rscale>
<asrwt>0</asrwt>
<pdfrwt beam="1">  1       21 0.93395996E-01 0.22107141E+02</pdfrwt>
<pdfrwt beam="2">  1       21 0.38864306E-03 0.22107141E+02</pdfrwt>
<totfact> 0.12895684E+07</totfact>
</mgrwt>
</event>
<event>
 4    1  0.4353697E+006  0.2832576E+02  0.7546771E-02  0.1617368E+00
         21   -1    0    0  503  501  0.00000000000E+00  0.00000000000E+00  0.17740430981E+02  0.17740430981E+02  0.00000000000E+00 0.  1.
         21   -1    0    0  504  502 -0.00000000000E+00 -0.00000000000E+00 -0.61776283437E+02  0.61776283437E+02  0.00000000000E+00 0.  1.
         21    1    1    2  503  502  0.28318820612E+02  0.62704426199E+00 -0.14398188580E+01  0.28362331774E+02  0.00000000000E+00 0.  1.
         21    1    1    2  504  501 -0.28318820612E+02 -0.62704426199E+00 -0.42596033598E+02  0.51154382644E+02  0.00000000000E+00 0.  1.
<mgrwt>
<rscale>  2 0.28325762E+02</rscale>
<asrwt>0</asrwt>
<pdfrwt beam="1">  1       21 0.27292971E-02 0.28325762E+02</pdfrwt>
<pdfrwt beam="2">  1       21 0.95040436E-02 0.28325762E+02</pdfrwt>
<totfact> 0.49355316E+07</totfact>
</mgrwt>
</event>
<event>
 4    1  0.4353697E+006  0.2697750E+02  0.7546771E-02  0.1634122E+00
         21   -1    0    0  503  501  0.00000000000E+00  0.00000000000E+00  0.48797137852E+02  0.48797137852E+02  0.00000000000E+00 0. -1.
         21   -1    0    0  504  502 -0.00000000000E+00 -0.00000000000E+00 -0.24838863043E+02  0.24838863043E+02  0.00000000000E+00 0. -1.
         21    1    1    2  503  502  0.22527497532E+02  0.14842419091E+02  0.35251762746E+02  0.44390002548E+02  0.00000000000E+00 0. -1.
         21    1    1    2  504  501 -0.22527497532E+02 -0.14842419091E+02 -0.11293487938E+02  0.29245998347E+02  0.00000000000E+00 0. -1.
<mgrwt>
<rscale>  2 0.26977501E+02</rscale>
<asrwt>0</asrwt>
<pdfrwt beam="1">  1       21 0.75072520E-02 0.26977501E+02</pdfrwt>
<pdfrwt beam="2">  1       21 0.38213636E-02 0.26977501E+02</pdfrwt>
<totfact> 0.42409517E+07</totfact>
</mgrwt>
</event>
<event>
 4    1  0.4353697E+006  0.4013586E+02  0.7546771E-02  0.1507214E+00
         21   -1    0    0  504  501  0.00000000000E+00  0.00000000000E+00  0.52037117551E+02  0.52037117551E+02  0.00000000000E+00 0. -1.
         21   -1    0    0  503  502 -0.00000000000E+00 -0.00000000000E+00 -0.53685002138E+02  0.53685002138E+02  0.00000000000E+00 0.  1.
         21    1    1    2  503  501  0.72877978039E+01  0.39468659720E+02 -0.35218899575E+02  0.53397172061E+02  0.00000000000E+00 0.  1.
         21    1    1    2  504  502 -0.72877978039E+01 -0.39468659720E+02  0.33571014988E+02  0.52324947627E+02  0.00000000000E+00 0. -1.
<mgrwt>
<rscale>  2 0.40135858E+02</rscale>
<asrwt>0</asrwt>
<pdfrwt beam="1">  1       21 0.80057104E-02 0.40135858E+02</pdfrwt>
<pdfrwt beam="2">  1       21 0.82592311E-02 0.40135858E+02</pdfrwt>
<totfact> 0.11740103E+07</totfact>
</mgrwt>
</event>
<event>
 4    1  0.4353697E+006  0.2896487E+02  0.7546771E-02  0.1609821E+00
         21   -1    0    0  504  501  0.00000000000E+00  0.00000000000E+00  0.36923174610E+02  0.36923174610E+02  0.00000000000E+00 0. -1.
         21   -1    0    0  503  502 -0.00000000000E+00 -0.00000000000E+00 -0.28470856050E+02  0.28470856050E+02  0.00000000000E+00 0. -1.
         21    1    1    2  503  501  0.28662120379E+02  0.41769023435E+01 -0.10466600878E+02  0.30797944603E+02  0.00000000000E+00 0. -1.
         21    1    1    2  504  502 -0.28662120379E+02 -0.41769023435E+01  0.18918919438E+02  0.34596086058E+02  0.00000000000E+00 0. -1.
<mgrwt>
<rscale>  2 0.28964869E+02</rscale>
<asrwt>0</asrwt>
<pdfrwt beam="1">  1       21 0.56804884E-02 0.28964869E+02</pdfrwt>
<pdfrwt beam="2">  1       21 0.43801317E-02 0.28964869E+02</pdfrwt>
<totfact> 0.54625025E+07</totfact>
</mgrwt>
</event>
<event>
 4    1  0.4353697E+006  0.2214653E+02  0.7546771E-02  0.1705730E+00
         21   -1    0    0  502  501  0.00000000000E+00  0.00000000000E+00  0.18310870585E+02  0.18310870585E+02  0.00000000000E+00 0. -1.
         21   -1    0    0  503  502 -0.00000000000E+00 -0.00000000000E+00 -0.66694617572E+02  0.66694617572E+02  0.00000000000E+00 0. -1.
         21    1    1    2  503  504  0.14124159225E+02  0.17058051337E+02 -0.57069972491E+02  0.61216425487E+02  0.00000000000E+00 0. -1.
         21    1    1    2  504  501 -0.14124159225E+02 -0.17058051337E+02  0.86862255047E+01  0.23789062671E+02  0.00000000000E+00 0. -1.
<mgrwt>
<rscale>  2 0.22146534E+02</rscale>
<asrwt>0</asrwt>
<pdfrwt beam="1">  1       21 0.28170571E-02 0.22146534E+02</pdfrwt>
<pdfrwt beam="2">  1       21 0.10260710E-01 0.22146534E+02</pdfrwt>
<totfact> 0.39002339E+07</totfact>
</mgrwt>
</event>
<event>
 4    1  0.4353697E+006  0.2343810E+02  0.7546771E-02  0.1684505E+00
         21   -1    0    0  502  501  0.00000000000E+00  0.00000000000E+00  0.26714659254E+02  0.26714659254E+02  0.00000000000E+00 0.  1.
         21   -1    0    0  503  502 -0.00000000000E+00 -0.00000000000E+00 -0.10298883325E+03  0.10298883325E+03  0.00000000000E+00 0. -1.
         21    1    1    2  503  504 -0.23360914574E+02  0.19006098262E+01 -0.96154342839E+02  0.98969703922E+02  0.00000000000E+00 0. -1.
         21    1    1    2  504  501  0.23360914574E+02 -0.19006098262E+01  0.19880168843E+02  0.30733788583E+02  0.00000000000E+00 0.  1.
<mgrwt>
<rscale>  2 0.23438102E+02</rscale>
<asrwt>0</asrwt>
<pdfrwt beam="1">  1       21 0.41099476E-02 0.23438102E+02</pdfrwt>
<pdfrwt beam="2">  1       21 0.15844436E-01 0.23438102E+02</pdfrwt>
<totfact> 0.10533828E+07</totfact>
</mgrwt>
</event>
<event>
 4    1  0.4353697E+006  0.2787211E+02  0.7546771E-02  0.1622875E+00
         21   -1    0    0  502  501  0.00000000000E+00  0.00000000000E+00  0.26526661620E+03  0.26526661620E+03  0.00000000000E+00 0. -1.
         21   -1    0    0  504  502 -0.00000000000E+00 -0.00000000000E+00 -0.76266577833E+01  0.76266577833E+01  0.00000000000E+00 0. -1.
         21    1    1    2  503  501 -0.16492148915E-01 -0.27872100386E+02  0.23591168893E+03  0.23755247678E+03  0.00000000000E+00 0. -1.
         21    1    1    2  504  503  0.16492148915E-01  0.27872100386E+02  0.21728269489E+02  0.35340797202E+02  0.00000000000E+00 0. -1.
<mgrwt>
<rscale>  2 0.27872105E+02</rscale>
<asrwt>0</asrwt>
<pdfrwt beam="1">  1       21 0.40810242E-01 0.27872105E+02</pdfrwt>
<pdfrwt beam="2">  1       21 0.11733322E-02 0.27872105E+02</pdfrwt>
<totfact> 0.13775606E+07</totfact>
</mgrwt>
</event>
<event>
 4    1  0.4353697E+006  0.3107314E+02  0.7546771E-02  0.1586521E+00
         21   -1    0    0  504  501  0.00000000000E+00  0.00000000000E+00  0.14097148029E+02  0.14097148029E+02  0.00000000000E+00 0.  1.
         21   -1    0    0  503  502 -0.00000000000E+00 -0.00000000000E+00 -0.10214469593E+04  0.10214469593E+04  0.00000000000E+00 0.  1.
         21    1    1    2  503  501 -0.57455144102E+01  0.30537335393E+02 -0.10037864927E+04  0.10042673263E+04  0.00000000000E+00 0.  1.
         21    1    1    2  504  502  0.57455144102E+01 -0.30537335393E+02 -0.35633185300E+01  0.31276780967E+02  0.00000000000E+00 0.  1.
<mgrwt>
<rscale>  2 0.31073136E+02</rscale>
<asrwt>0</asrwt>
<pdfrwt beam="1">  1       21 0.21687915E-02 0.31073136E+02</pdfrwt>
<pdfrwt beam="2">  1       21 0.15714572E+00 0.31073136E+02</pdfrwt>
<totfact> 0.30328308E+05</totfact>
</mgrwt>
</event>
<event>
 4    1  0.4353697E+006  0.2748871E+02  0.7546771E-02  0.1627631E+00
         21   -1    0    0  503  501  0.00000000000E+00  0.00000000000E+00  0.46336186473E+03  0.46336186473E+03  0.00000000000E+00 0. -1.
         21   -1    0    0  501  502 -0.00000000000E+00 -0.00000000000E+00 -0.70279227840E+01  0.70279227840E+01  0.00000000000E+00 0. -1.
         21    1    1    2  503  504  0.26815390789E+02 -0.60468184085E+01  0.43427618139E+03  0.43514529863E+03  0.00000000000E+00 0. -1.
         21    1    1    2  504  502 -0.26815390789E+02  0.60468184085E+01  0.22057760555E+02  0.35244488885E+02  0.00000000000E+00 0. -1.
<mgrwt>
<rscale>  2 0.27488710E+02</rscale>
<asrwt>0</asrwt>
<pdfrwt beam="1">  1       21 0.71286417E-01 0.27488710E+02</pdfrwt>
<pdfrwt beam="2">  1       21 0.10812192E-02 0.27488710E+02</pdfrwt>
<totfact> 0.51459899E+06</totfact>
</mgrwt>
</event>
<event>
 4    1  0.4353697E+006  0.2443731E+02  0.7546771E-02  0.1669218E+00
         21   -1    0    0  504  501  0.00000000000E+00  0.00000000000E+00  0.53264890494E+02  0.53264890494E+02  0.00000000000E+00 0. -1.
         21   -1    0    0  503  502 -0.00000000000E+00 -0.00000000000E+00 -0.87014091315E+02  0.87014091315E+02  0.00000000000E+00 0. -1.
         21    1    1    2  503  501  0.22597286400E+02 -0.93029441358E+01  0.48590477655E+02  0.54389490170E+02  0.00000000000E+00 0. -1.
         21    1    1    2  504  502 -0.22597286400E+02  0.93029441358E+01 -0.82339678477E+02  0.85889491638E+02  0.00000000000E+00 0. -1.
<mgrwt>
<rscale>  2 0.24437310E+02</rscale>
<asrwt>0</asrwt>
<pdfrwt beam="1">  1       21 0.81945985E-02 0.24437310E+02</pdfrwt>
<pdfrwt beam="2">  1       21 0.13386783E-01 0.24437310E+02</pdfrwt>
<totfact> 0.46645883E+06</totfact>
</mgrwt>
</event>
<event>
 4    1  0.4353697E+006  0.3408214E+02  0.7546771E-02  0.1556906E+00
         21   -1    0    0  503  501  0.00000000000E+00  0.00000000000E+00  0.46687260393E+01  0.46687260393E+01  0.00000000000E+00 0.  1.
         21   -1    0    0  501  502 -0.00000000000E+00 -0.00000000000E+00 -0.25881957031E+03  0.25881957031E+03  0.00000000000E+00 0.  1.
         21    1    1    2  503  504  0.15887313429E+02  0.30152706251E+02 -0.10115779782E+03  0.10674498808E+03  0.00000000000E+00 0.  1.
         21    1    1    2  504  502 -0.15887313429E+02 -0.30152706251E+02 -0.15299304646E+03  0.15674330827E+03  0.00000000000E+00 0.  1.
<mgrwt>
<rscale>  2 0.34082142E+02</rscale>
<asrwt>0</asrwt>
<pdfrwt beam="1">  1       21 0.71826534E-03 0.34082142E+02</pdfrwt>
<pdfrwt beam="2">  1       21 0.39818407E-01 0.34082142E+02</pdfrwt>
<totfact> 0.31428016E+07</totfact>
</mgrwt>
</event>
<event>
 4    1  0.4353697E+006  0.2115467E+02  0.7546771E-02  0.1723295E+00
         21   -1    0    0  503  501  0.00000000000E+00  0.00000000000E+00  0.23558657798E+02  0.23558657798E+02  0.00000000000E+00 0.  1.
         21   -1    0    0  504  502 -0.00000000000E+00 -0.00000000000E+00 -0.75989160822E+02  0.75989160822E+02  0.00000000000E+00 0. -1.
         21    1    1    2  503  502  0.26904800435E+00  0.21152960194E+02 -0.69321211773E+02  0.72477241348E+02  0.00000000000E+00 0. -1.
         21    1    1    2  504  501 -0.26904800435E+00 -0.21152960194E+02  0.16890708749E+02  0.27070577272E+02  0.00000000000E+00 0.  1.
<mgrwt>
<rscale>  2 0.21154671E+02</rscale>
<asrwt>0</asrwt>
<pdfrwt beam="1">  1       21 0.36244089E-02 0.21154671E+02</pdfrwt>
<pdfrwt beam="2">  1       21 0.11690640E-01 0.21154671E+02</pdfrwt>
<totfact> 0.20980636E+07</totfact>
</mgrwt>
</event>
<event>
 4    1  0.4353697E+006  0.2188921E+02  0.7546771E-02  0.1710175E+00
         21   -1    0    0  502  501  0.00000000000E+00  0.00000000000E+00  0.16695347404E+02  0.16695347404E+02  0.00000000000E+00 0.  1.
         21   -1    0    0  503  502 -0.00000000000E+00 -0.00000000000E+00 -0.43056972456E+02  0.43056972456E+02  0.00000000000E+00 0.  1.
         21    1    1    2  503  504  0.18678274875E+02 -0.11413132054E+02 -0.30433295904E+02  0.37487638431E+02  0.00000000000E+00 0.  1.
         21    1    1    2  504  501 -0.18678274875E+02  0.11413132054E+02  0.40716708521E+01  0.22264681429E+02  0.00000000000E+00 0.  1.
<mgrwt>
<rscale>  2 0.21889210E+02</rscale>
<asrwt>0</asrwt>
<pdfrwt beam="1">  1       21 0.25685150E-02 0.21889210E+02</pdfrwt>
<pdfrwt beam="2">  1       21 0.66241496E-02 0.21889210E+02</pdfrwt>
<totfact> 0.91618487E+07</totfact>
</mgrwt>
</event>
<event>
 4    1  0.4353697E+006  0.2135451E+02  0.7546771E-02  0.1719660E+00
         21   -1    0    0  503  501  0.00000000000E+00  0.00000000000E+00  0.64538649697E+02  0.64538649697E+02  0.00000000000E+00 0.  1.
         21   -1    0    0  504  502 -0.00000000000E+00 -0.00000000000E+00 -0.40707600120E+02  0.40707600120E+02  0.00000000000E+00 0.  1.
         21    1    1    2  503  502 -0.63310986233E+01 -0.20394421113E+02 -0.35923100851E+02  0.41790960710E+02  0.00000000000E+00 0.  1.
         21    1    1    2  504  501  0.63310986233E+01  0.20394421113E+02  0.59754150428E+02  0.63455289107E+02  0.00000000000E+00 0.  1.
<mgrwt>
<rscale>  2 0.21354513E+02</rscale>
<asrwt>0</asrwt>
<pdfrwt beam="1">  1       21 0.99290230E-02 0.21354513E+02</pdfrwt>
<pdfrwt beam="2">  1       21 0.62627077E-02 0.21354513E+02</pdfrwt>
<totfact> 0.11589299E+07</totfact>
</mgrwt>
</event>
<event>
 4    1  0.4353697E+006  0.2337021E+02  0.7546771E-02  0.1685579E+00
         21   -1    0    0  504  501  0.00000000000E+00  0.00000000000E+00  0.10749490950E+01  0.10749490950E+01  0.00000000000E+00 0. -1.
         21   -1    0    0  501  502 -0.00000000000E+00 -0.00000000000E+00 -0.67197745971E+03  0.67197745971E+03  0.00000000000E+00 0. -1.
         21    1    1    2  503  502  0.17791866150E+02 -0.15153086752E+02 -0.50164694404E+03  0.50219102243E+03  0.00000000000E+00 0. -1.
         21    1    1    2  504  503 -0.17791866150E+02  0.15153086752E+02 -0.16925556658E+03  0.17086138638E+03  0.00000000000E+00 0. -1.
<mgrwt>
<rscale>  2 0.23370206E+02</rscale>
<asrwt>0</asrwt>
<pdfrwt beam="1">  1       21 0.16537687E-03 0.23370206E+02</pdfrwt>
<pdfrwt beam="2">  1       21 0.10338109E+00 0.23370206E+02</pdfrwt>
<totfact> 0.36093673E+07</totfact>
</mgrwt>
</event>
<event>
 4    1  0.4353697E+006  0.3417224E+02  0.7546771E-02  0.1556077E+00
         21   -1    0    0  503  501  0.00000000000E+00  0.00000000000E+00  0.58801314896E+03  0.58801314896E+03  0.00000000000E+00 0. -1.
         21   -1    0    0  501  502 -0.00000000000E+00 -0.00000000000E+00 -0.38288729045E+01  0.38288729045E+01  0.00000000000E+00 0.  1.
         21    1    1    2  503  504 -0.41622484070E+01  0.33917810737E+02  0.49739661611E+03  0.49856908841E+03  0.00000000000E+00 0. -1.
         21    1    1    2  504  502  0.41622484070E+01 -0.33917810737E+02  0.86787659942E+02  0.93272933455E+02  0.00000000000E+00 0.  1.
<mgrwt>
<rscale>  2 0.34172243E+02</rscale>
<asrwt>0</asrwt>
<pdfrwt beam="1">  1       21 0.90463490E-01 0.34172243E+02</pdfrwt>
<pdfrwt beam="2">  1       21 0.58905783E-03 0.34172243E+02</pdfrwt>
<totfact> 0.79611228E+06</totfact>
</mgrwt>
</event>
<event>
 4    1  0.4353697E+006  0.3298960E+02  0.7546771E-02  0.1567214E+00
         21   -1    0    0  503  501  0.00000000000E+00  0.00000000000E+00  0.46168783731E+01  0.46168783731E+01  0.00000000000E+00 0.  1.
         21   -1    0    0  501  502 -0.00000000000E+00 -0.00000000000E+00 -0.29753182091E+03  0.29753182091E+03  0.00000000000E+00 0. -1.
         21    1    1    2  503  504  0.31887419543E+02 -0.84561263109E+01 -0.77601395211E+02  0.84322536347E+02  0.00000000000E+00 0.  1.
         21    1    1    2  504  502 -0.31887419543E+02  0.84561263109E+01 -0.21531354732E+03  0.21782616293E+03  0.00000000000E+00 0. -1.
<mgrwt>
<rscale>  2 0.32989598E+02</rscale>
<asrwt>0</asrwt>
<pdfrwt beam="1">  1       21 0.71028899E-03 0.32989598E+02</pdfrwt>
<pdfrwt beam="2">  1       21 0.45774126E-01 0.32989598E+02</pdfrwt>
<totfact> 0.24280030E+07</totfact>
</mgrwt>
</event>
<event>
 4    1  0.4353697E+006  0.2948866E+02  0.7546771E-02  0.1603811E+00
         21   -1    0    0  502  501  0.00000000000E+00  0.00000000000E+00  0.20159745280E+03  0.20159745280E+03  0.00000000000E+00 0. -1.
         21   -1    0    0  503  502 -0.00000000000E+00 -0.00000000000E+00 -0.43324941452E+01  0.43324941452E+01  0.00000000000E+00 0. -1.
         21    1    1    2  503  504  0.52182168724E-01 -0.29488609143E+02  0.91806160174E+02  0.96425887800E+02  0.00000000000E+00 0. -1.
         21    1    1    2  504  501 -0.52182168724E-01  0.29488609143E+02  0.10545879848E+03  0.10950405914E+03  0.00000000000E+00 0. -1.
<mgrwt>
<rscale>  2 0.29488655E+02</rscale>
<asrwt>0</asrwt>
<pdfrwt beam="1">  1       21 0.31014985E-01 0.29488655E+02</pdfrwt>
<pdfrwt beam="2">  1       21 0.66653772E-03 0.29488655E+02</pdfrwt>
<totfact> 0.54661761E+07</totfact>
</mgrwt>
</event>
<event>
 4    1  0.4353697E+006  0.2636862E+02  0.7546771E-02  0.1642088E+00
         21   -1    0    0  504  501  0.00000000000E+00  0.00000000000E+00  0.64517073613E+02  0.64517073613E+02  0.00000000000E+00 0.  1.
         21   -1    0    0  503  502 -0.00000000000E+00 -0.00000000000E+00 -0.24661821577E+02  0.24661821577E+02  0.00000000000E+00 0.  1.
         21    1    1    2  503  501 -0.14072003260E+02 -0.22299838168E+02  0.53384765437E+02  0.59541894820E+02  0.00000000000E+00 0.  1.
         21    1    1    2  504  502  0.14072003260E+02  0.22299838168E+02 -0.13529513401E+02  0.29637000370E+02  0.00000000000E+00 0.  1.
<mgrwt>
<rscale>  2 0.26368619E+02</rscale>
<asrwt>0</asrwt>
<pdfrwt beam="1">  1       21 0.99257036E-02 0.26368619E+02</pdfrwt>
<pdfrwt beam="2">  1       21 0.37941264E-02 0.26368619E+02</pdfrwt>
<totfact> 0.26927010E+07</totfact>
</mgrwt>
</event>
<event>
 4    1  0.4353697E+006  0.2823333E+02  0.7546771E-02  0.1618480E+00
         21   -1    0    0  503  501  0.00000000000E+00  0.00000000000E+00  0.53392288771E+02  0.53392288771E+02  0.00000000000E+00 0.  1.
         21   -1    0    0  501  502 -0.00000000000E+00 -0.00000000000E+00 -0.53796307213E+02  0.53796307213E+02  0.00000000000E+00 0.  1.
         21    1    1    2  503  504 -0.44345283213E+01 -0.27882891346E+02  0.45352538094E+02  0.53422592438E+02  0.00000000000E+00 0.  1.
         21    1    1    2  504  502  0.44345283213E+01  0.27882891346E+02 -0.45756556536E+02  0.53766003546E+02  0.00000000000E+00 0.  1.
<mgrwt>
<rscale>  2 0.28233326E+02</rscale>
<asrwt>0</asrwt>
<pdfrwt beam="1">  1       21 0.82141983E-02 0.28233326E+02</pdfrwt>
<pdfrwt beam="2">  1       21 0.82763550E-02 0.28233326E+02</pdfrwt>
<totfact> 0.10612436E+07</totfact>
</mgrwt>
</event>
<event>
 4    1  0.4353697E+006  0.2415329E+02  0.7546771E-02  0.1673470E+00
         21   -1    0    0  504  501  0.00000000000E+00  0.00000000000E+00  0.13227620773E+02  0.13227620773E+02  0.00000000000E+00 0. -1.
         21   -1    0    0  503  502 -0.00000000000E+00 -0.00000000000E+00 -0.69338380214E+02  0.69338380214E+02  0.00000000000E+00 0. -1.
         21    1    1    2  503  501  0.10757037057E+02  0.21625622278E+02 -0.52960404378E+02  0.58208125009E+02  0.00000000000E+00 0. -1.
         21    1    1    2  504  502 -0.10757037057E+02 -0.21625622278E+02 -0.31503550630E+01  0.24357875978E+02  0.00000000000E+00 0. -1.
<mgrwt>
<rscale>  2 0.24153289E+02</rscale>
<asrwt>0</asrwt>
<pdfrwt beam="1">  1       21 0.20350186E-02 0.24153289E+02</pdfrwt>
<pdfrwt beam="2">  1       21 0.10667443E-01 0.24153289E+02</pdfrwt>
<totfact> 0.61789060E+07</totfact>
</mgrwt>
</event>
<event>
 4    1  0.4353697E+006  0.3333612E+02  0.7546771E-02  0.1563893E+00
         21   -1    0    0  504  501  0.00000000000E+00  0.00000000000E+00  0.51367435123E+02  0.51367435123E+02  0.00000000000E+00 0.  1.
         21   -1    0    0  503  502 -0.00000000000E+00 -0.00000000000E+00 -0.32968538360E+02  0.32968538360E+02  0.00000000000E+00 0. -1.
         21    1    1    2  503  501 -0.84581479589E+01 -0.32245254564E+02 -0.15525184937E+02  0.36774013599E+02  0.00000000000E+00 0. -1.
         21    1    1    2  504  502  0.84581479589E+01  0.32245254564E+02  0.33924081700E+02  0.47561959884E+02  0.00000000000E+00 0.  1.
<mgrwt>
<rscale>  2 0.33336117E+02</rscale>
<asrwt>0</asrwt>
<pdfrwt beam="1">  1       21 0.79026823E-02 0.33336117E+02</pdfrwt>
<pdfrwt beam="2">  1       21 0.50720828E-02 0.33336117E+02</pdfrwt>
<totfact> 0.25902310E+07</totfact>
</mgrwt>
</event>
<event>
 4    1  0.4353697E+006  0.2316723E+02  0.7546771E-02  0.1688814E+00
         21   -1    0    0  504  501  0.00000000000E+00  0.00000000000E+00  0.42588583264E+03  0.42588583264E+03  0.00000000000E+00 0. -1.
         21   -1    0    0  503  502 -0.00000000000E+00 -0.00000000000E+00 -0.14039132966E+01  0.14039132966E+01  0.00000000000E+00 0. -1.
         21    1    1    2  503  501 -0.16422881230E+02  0.16340421093E+02  0.14389652367E+03  0.14574954516E+03  0.00000000000E+00 0. -1.
         21    1    1    2  504  502  0.16422881230E+02 -0.16340421093E+02  0.28058539566E+03  0.28154020077E+03  0.00000000000E+00 0. -1.
<mgrwt>
<rscale>  2 0.23167227E+02</rscale>
<asrwt>0</asrwt>
<pdfrwt beam="1">  1       21 0.65520794E-01 0.23167227E+02</pdfrwt>
<pdfrwt beam="2">  1       21 0.21598700E-03 0.23167227E+02</pdfrwt>
<totfact> 0.64194898E+07</totfact>
</mgrwt>
</event>
<event>
 4    1  0.4353697E+006  0.2278994E+02  0.7546771E-02  0.1694938E+00
         21   -1    0    0  504  501  0.00000000000E+00  0.00000000000E+00  0.54456673809E+01  0.54456673809E+01  0.00000000000E+00 0. -1.
         21   -1    0    0  503  502 -0.00000000000E+00 -0.00000000000E+00 -0.61894359203E+03  0.61894359203E+03  0.00000000000E+00 0. -1.
         21    1    1    2  503  501  0.21370834240E+02 -0.79163556079E+01 -0.19613633317E+02  0.30067854165E+02  0.00000000000E+00 0. -1.
         21    1    1    2  504  502 -0.21370834240E+02  0.79163556079E+01 -0.59388429133E+03  0.59432140524E+03  0.00000000000E+00 0. -1.
<mgrwt>
<rscale>  2 0.22789937E+02</rscale>
<asrwt>0</asrwt>
<pdfrwt beam="1">  1       21 0.83779441E-03 0.22789937E+02</pdfrwt>
<pdfrwt beam="2">  1       21 0.95222157E-01 0.22789937E+02</pdfrwt>
<totfact> 0.39912551E+06</totfact>
</mgrwt>
</event>
<event>
 4    1  0.4353697E+006  0.2047431E+02  0.7546771E-02  0.1736057E+00
         21   -1    0    0  503  501  0.00000000000E+00  0.00000000000E+00  0.49171764553E+01  0.49171764553E+01  0.00000000000E+00 0.  1.
         21   -1    0    0  504  502 -0.00000000000E+00 -0.00000000000E+00 -0.77600778143E+03  0.77600778143E+03  0.00000000000E+00 0.  1.
         21    1    1    2  503  502 -0.14719109428E+02  0.14231839706E+02 -0.17154616870E+02  0.26711015026E+02  0.00000000000E+00 0.  1.
         21    1    1    2  504  501  0.14719109428E+02 -0.14231839706E+02 -0.75393598811E+03  0.75421394286E+03  0.00000000000E+00 0.  1.
<mgrwt>
<rscale>  2 0.20474312E+02</rscale>
<asrwt>0</asrwt>
<pdfrwt beam="1">  1       21 0.75648869E-03 0.20474312E+02</pdfrwt>
<pdfrwt beam="2">  1       21 0.11938581E+00 0.20474312E+02</pdfrwt>
<totfact> 0.27818449E+06</totfact>
</mgrwt>
</event>
<event>
 4    1  0.4353697E+006  0.3120709E+02  0.7546771E-02  0.1585117E+00
         21   -1    0    0  502  501  0.00000000000E+00  0.00000000000E+00  0.35422671545E+03  0.35422671545E+03  0.00000000000E+00 0. -1.
         21   -1    0    0  504  502 -0.00000000000E+00 -0.00000000000E+00 -0.37676305853E+02  0.37676305853E+02  0.00000000000E+00 0.  1.
         21    1    1    2  503  501  0.22405207515E+02  0.21723013372E+02  0.34694180022E+03  0.34834249722E+03  0.00000000000E+00 0. -1.
         21    1    1    2  504  503 -0.22405207515E+02 -0.21723013372E+02 -0.30391390624E+02  0.43560524077E+02  0.00000000000E+00 0.  1.
<mgrwt>
<rscale>  2 0.31207093E+02</rscale>
<asrwt>0</asrwt>
<pdfrwt beam="1">  1       21 0.54496416E-01 0.31207093E+02</pdfrwt>
<pdfrwt beam="2">  1       21 0.57963550E-02 0.31207093E+02</pdfrwt>
<totfact> 0.65142365E+05</totfact>
</mgrwt>
</event>
<event>
 4    1  0.4353697E+006  0.2367910E+02  0.7546771E-02  0.1680733E+00
         21   -1    0    0  503  501  0.00000000000E+00  0.00000000000E+00  0.29242567117E+02  0.29242567117E+02  0.00000000000E+00 0. -1.
         21   -1    0    0  501  502 -0.00000000000E+00 -0.00000000000E+00 -0.41301908079E+02  0.41301908079E+02  0.00000000000E+00 0. -1.
         21    1    1    2  503  504 -0.23641154558E+02  0.13400489570E+01  0.19788005545E+02  0.30858792645E+02  0.00000000000E+00 0. -1.
         21    1    1    2  504  502  0.23641154558E+02 -0.13400489570E+01 -0.31847346506E+02  0.39685682551E+02  0.00000000000E+00 0. -1.
<mgrwt>
<rscale>  2 0.23679103E+02</rscale>
<asrwt>0</asrwt>
<pdfrwt beam="1">  1       21 0.44988565E-02 0.23679103E+02</pdfrwt>
<pdfrwt beam="2">  1       21 0.63541397E-02 0.23679103E+02</pdfrwt>
<totfact> 0.41633148E+07</totfact>
</mgrwt>
</event>
<event>
 4    1  0.4353697E+006  0.2412435E+02  0.7546771E-02  0.1673907E+00
         21   -1    0    0  503  501  0.00000000000E+00  0.00000000000E+00  0.21043594529E+03  0.21043594529E+03  0.00000000000E+00 0. -1.
         21   -1    0    0  501  502 -0.00000000000E+00 -0.00000000000E+00 -0.33010148089E+01  0.33010148089E+01  0.00000000000E+00 0. -1.
         21    1    1    2  503  504  0.24121799149E+02 -0.35104589034E+00  0.14660681819E+03  0.14857840882E+03  0.00000000000E+00 0. -1.
         21    1    1    2  504  502 -0.24121799149E+02  0.35104589034E+00  0.60528112296E+02  0.65158551285E+02  0.00000000000E+00 0. -1.
<mgrwt>
<rscale>  2 0.24124353E+02</rscale>
<asrwt>0</asrwt>
<pdfrwt beam="1">  1       21 0.32374750E-01 0.24124353E+02</pdfrwt>
<pdfrwt beam="2">  1       21 0.50784860E-03 0.24124353E+02</pdfrwt>
<totfact> 0.72259282E+07</totfact>
</mgrwt>
</event>
<event>
 4    1  0.4353697E+006  0.2089859E+02  0.7546771E-02  0.1728027E+00
         21   -1    0    0  504  501  0.00000000000E+00  0.00000000000E+00  0.59064001073E+02  0.59064001073E+02  0.00000000000E+00 0. -1.
         21   -1    0    0  503  502 -0.00000000000E+00 -0.00000000000E+00 -0.17342441845E+02  0.17342441845E+02  0.00000000000E+00 0. -1.
         21    1    1    2  503  501 -0.74042790627E+01 -0.19542965987E+02 -0.80733685416E+01  0.22403797616E+02  0.00000000000E+00 0. -1.
         21    1    1    2  504  502  0.74042790627E+01  0.19542965987E+02  0.49794927770E+02  0.54002645302E+02  0.00000000000E+00 0. -1.
<mgrwt>
<rscale>  2 0.20898585E+02</rscale>
<asrwt>0</asrwt>
<pdfrwt beam="1">  1       21 0.90867693E-02 0.20898585E+02</pdfrwt>
<pdfrwt beam="2">  1       21 0.26680680E-02 0.20898585E+02</pdfrwt>
<totfact> 0.51046374E+07</totfact>
</mgrwt>
</event>
<event>
 4    1  0.4353697E+006  0.2040110E+02  0.7546771E-02  0.1737467E+00
         21   -1    0    0  502  501  0.00000000000E+00  0.00000000000E+00  0.74948571700E+03  0.74948571700E+03  0.00000000000E+00 0. -1.
         21   -1    0    0  504  502 -0.00000000000E+00 -0.00000000000E+00 -0.40460378165E+02  0.40460378165E+02  0.00000000000E+00 0. -1.
         21    1    1    2  503  501 -0.48762076006E+01 -0.19809784474E+02  0.74676583961E+03  0.74704445930E+03  0.00000000000E+00 0. -1.
         21    1    1    2  504  503  0.48762076006E+01  0.19809784474E+02 -0.37740500773E+02  0.42901635867E+02  0.00000000000E+00 0. -1.
<mgrwt>
<rscale>  2 0.20401102E+02</rscale>
<asrwt>0</asrwt>
<pdfrwt beam="1">  1       21 0.11530549E+00 0.20401102E+02</pdfrwt>
<pdfrwt beam="2">  1       21 0.62246741E-02 0.20401102E+02</pdfrwt>
<totfact> 0.11820732E+05</totfact>
</mgrwt>
</event>
<event>
 4    1  0.4353697E+006  0.3081373E+02  0.7546771E-02  0.1589264E+00
         21   -1    0    0  502  501  0.00000000000E+00  0.00000000000E+00  0.45967252522E+01  0.45967252522E+01  0.00000000000E+00 0. -1.
         21   -1    0    0  504  502 -0.00000000000E+00 -0.00000000000E+00 -0.33341168555E+03  0.33341168555E+03  0.00000000000E+00 0. -1.
         21    1    1    2  503  501  0.17906560108E+02  0.25076708204E+02 -0.60161286545E+02  0.67593391600E+02  0.00000000000E+00 0. -1.
         21    1    1    2  504  503 -0.17906560108E+02 -0.25076708204E+02 -0.26865367375E+03  0.27041501920E+03  0.00000000000E+00 0. -1.
<mgrwt>
<rscale>  2 0.30813734E+02</rscale>
<asrwt>0</asrwt>
<pdfrwt beam="1">  1       21 0.70718848E-03 0.30813734E+02</pdfrwt>
<pdfrwt beam="2">  1       21 0.51294107E-01 0.30813734E+02</pdfrwt>
<totfact> 0.19324845E+07</totfact>
</mgrwt>
</event>
<event>
 4    1  0.4353697E+006  0.2885654E+02  0.7546771E-02  0.1611083E+00
         21   -1    0    0  504  501  0.00000000000E+00  0.00000000000E+00  0.16501270032E+01  0.16501270032E+01  0.00000000000E+00 0. -1.
         21   -1    0    0  503  502 -0.00000000000E+00 -0.00000000000E+00 -0.56322101269E+03  0.56322101269E+03  0.00000000000E+00 0.  1.
         21    1    1    2  503  501 -0.19213485522E+02 -0.21530018639E+02 -0.18968842916E+03  0.19187078956E+03  0.00000000000E+00 0. -1.
         21    1    1    2  504  502  0.19213485522E+02  0.21530018639E+02 -0.37188245652E+03  0.37300035013E+03  0.00000000000E+00 0.  1.
<mgrwt>
<rscale>  2 0.28856537E+02</rscale>
<asrwt>0</asrwt>
<pdfrwt beam="1">  1       21 0.25386583E-03 0.28856537E+02</pdfrwt>
<pdfrwt beam="2">  1       21 0.86649340E-01 0.28856537E+02</pdfrwt>
<totfact> 0.29634145E+07</totfact>
</mgrwt>
</event>
<event>
 4    1  0.4353697E+006  0.2926697E+02  0.7546771E-02  0.1606336E+00
         21   -1    0    0  503  501  0.00000000000E+00  0.00000000000E+00  0.39775010211E+03  0.39775010211E+03  0.00000000000E+00 0. -1.
         21   -1    0    0  504  502 -0.00000000000E+00 -0.00000000000E+00 -0.32049119708E+01  0.32049119708E+01  0.00000000000E+00 0. -1.
         21    1    1    2  503  502 -0.28357263916E+02 -0.72402519068E+01  0.82445696814E+02  0.87486276567E+02  0.00000000000E+00 0. -1.
         21    1    1    2  504  501  0.28357263916E+02  0.72402519068E+01  0.31209949332E+03  0.31346873751E+03  0.00000000000E+00 0. -1.
<mgrwt>
<rscale>  2 0.29266972E+02</rscale>
<asrwt>0</asrwt>
<pdfrwt beam="1">  1       21 0.61192284E-01 0.29266972E+02</pdfrwt>
<pdfrwt beam="2">  1       21 0.49306369E-03 0.29266972E+02</pdfrwt>
<totfact> 0.23071358E+07</totfact>
</mgrwt>
</event>
<event>
 4    1  0.4353697E+006  0.2034125E+02  0.7546771E-02  0.1738626E+00
         21   -1    0    0  503  501  0.00000000000E+00  0.00000000000E+00  0.69027541973E+01  0.69027541973E+01  0.00000000000E+00 0.  1.
         21   -1    0    0  504  502 -0.00000000000E+00 -0.00000000000E+00 -0.61764740596E+02  0.61764740596E+02  0.00000000000E+00 0.  1.
         21    1    1    2  503  502  0.15619087880E+02 -0.13031139045E+02 -0.21533251703E+02  0.29621738975E+02  0.00000000000E+00 0.  1.
         21    1    1    2  504  501 -0.15619087880E+02  0.13031139045E+02 -0.33328734695E+02  0.39045755818E+02  0.00000000000E+00 0.  1.
<mgrwt>
<rscale>  2 0.20341251E+02</rscale>
<asrwt>0</asrwt>
<pdfrwt beam="1">  1       21 0.10619622E-02 0.20341251E+02</pdfrwt>
<pdfrwt beam="2">  1       21 0.95022679E-02 0.20341251E+02</pdfrwt>
<totfact> 0.19091069E+08</totfact>
</mgrwt>
</event>
<event>
 4    1  0.4353697E+006  0.2337620E+02  0.7546771E-02  0.1685484E+00
         21   -1    0    0  504  501  0.00000000000E+00  0.00000000000E+00  0.99326081816E+00  0.99326081816E+00  0.00000000000E+00 0. -1.
         21   -1    0    0  503  502 -0.00000000000E+00 -0.00000000000E+00 -0.10544431659E+04  0.10544431659E+04  0.00000000000E+00 0.  1.
         21    1    1    2  503  501  0.11172859907E+02 -0.20533243166E+02 -0.16177768676E+03  0.16345784412E+03  0.00000000000E+00 0. -1.
         21    1    1    2  504  502 -0.11172859907E+02  0.20533243166E+02 -0.89167221835E+03  0.89197858262E+03  0.00000000000E+00 0.  1.
<mgrwt>
<rscale>  2 0.23376203E+02</rscale>
<asrwt>0</asrwt>
<pdfrwt beam="1">  1       21 0.15280986E-03 0.23376203E+02</pdfrwt>
<pdfrwt beam="2">  1       21 0.16222149E+00 0.23376203E+02</pdfrwt>
<totfact> 0.14321170E+07</totfact>
</mgrwt>
</event>
<event>
 4    1  0.4353697E+006  0.2596061E+02  0.7546771E-02  0.1647576E+00
         21   -1    0    0  503  501  0.00000000000E+00  0.00000000000E+00  0.14805652245E+02  0.14805652245E+02  0.00000000000E+00 0.  1.
         21   -1    0    0  504  502 -0.00000000000E+00 -0.00000000000E+00 -0.54062701823E+02  0.54062701823E+02  0.00000000000E+00 0.  1.
         21    1    1    2  503  502 -0.24265364647E+02 -0.92274129948E+01 -0.33316488128E+02  0.42236731091E+02  0.00000000000E+00 0.  1.
         21    1    1    2  504  501  0.24265364647E+02  0.92274129948E+01 -0.59405614504E+01  0.26631622977E+02  0.00000000000E+00 0.  1.
<mgrwt>
<rscale>  2 0.25960606E+02</rscale>
<asrwt>0</asrwt>
<pdfrwt beam="1">  1       21 0.22777926E-02 0.25960606E+02</pdfrwt>
<pdfrwt beam="2">  1       21 0.83173388E-02 0.25960606E+02</pdfrwt>
<totfact> 0.79808005E+07</totfact>
</mgrwt>
</event>
<event>
 4    1  0.4353697E+006  0.2195493E+02  0.7546771E-02  0.1709033E+00
         21   -1    0    0  504  501  0.00000000000E+00  0.00000000000E+00  0.13767445202E+02  0.13767445202E+02  0.00000000000E+00 0. -1.
         21   -1    0    0  503  502 -0.00000000000E+00 -0.00000000000E+00 -0.10895268333E+03  0.10895268333E+03  0.00000000000E+00 0. -1.
         21    1    1    2  503  501 -0.21945421727E+02 -0.64623212097E+00 -0.98141318589E+02  0.10056707993E+03  0.00000000000E+00 0. -1.
         21    1    1    2  504  502  0.21945421727E+02  0.64623212097E+00  0.29560804619E+01  0.22153048604E+02  0.00000000000E+00 0. -1.
<mgrwt>
<rscale>  2 0.21954935E+02</rscale>
<asrwt>0</asrwt>
<pdfrwt beam="1">  1       21 0.21180685E-02 0.21954935E+02</pdfrwt>
<pdfrwt beam="2">  1       21 0.16761951E-01 0.21954935E+02</pdfrwt>
<totfact> 0.26457493E+07</totfact>
</mgrwt>
</event>
<event>
 4    1  0.4353697E+006  0.2207129E+02  0.7546771E-02  0.1707022E+00
         21   -1    0    0  504  501  0.00000000000E+00  0.00000000000E+00  0.20931406494E+02  0.20931406494E+02  0.00000000000E+00 0. -1.
         21   -1    0    0  501  502 -0.00000000000E+00 -0.00000000000E+00 -0.16127121252E+03  0.16127121252E+03  0.00000000000E+00 0. -1.
         21    1    1    2  503  502 -0.15822640072E+02 -0.15387847750E+02 -0.15444175449E+03  0.15601088849E+03  0.00000000000E+00 0. -1.
         21    1    1    2  504  503  0.15822640072E+02  0.15387847750E+02  0.14101948467E+02  0.26191730523E+02  0.00000000000E+00 0. -1.
<mgrwt>
<rscale>  2 0.22071289E+02</rscale>
<asrwt>0</asrwt>
<pdfrwt beam="1">  1       21 0.32202163E-02 0.22071289E+02</pdfrwt>
<pdfrwt beam="2">  1       21 0.24810957E-01 0.22071289E+02</pdfrwt>
<totfact> 0.69886413E+06</totfact>
</mgrwt>
</event>
<event>
 4    1  0.4353697E+006  0.2227752E+02  0.7546771E-02  0.1703496E+00
         21   -1    0    0  503  501  0.00000000000E+00  0.00000000000E+00  0.44424452872E+02  0.44424452872E+02  0.00000000000E+00 0. -1.
         21   -1    0    0  504  502 -0.00000000000E+00 -0.00000000000E+00 -0.12136350464E+02  0.12136350464E+02  0.00000000000E+00 0.  1.
         21    1    1    2  503  502  0.22485719392E+01  0.22163752380E+02  0.81701581054E+01  0.23728452938E+02  0.00000000000E+00 0.  1.
         21    1    1    2  504  501 -0.22485719392E+01 -0.22163752380E+02  0.24117944302E+02  0.32832350399E+02  0.00000000000E+00 0. -1.
<mgrwt>
<rscale>  2 0.22277522E+02</rscale>
<asrwt>0</asrwt>
<pdfrwt beam="1">  1       21 0.68345311E-02 0.22277522E+02</pdfrwt>
<pdfrwt beam="2">  1       21 0.18671309E-02 0.22277522E+02</pdfrwt>
<totfact> 0.14295577E+08</totfact>
</mgrwt>
</event>
<event>
 4    1  0.4353697E+006  0.2405557E+02  0.7546771E-02  0.1674950E+00
         21   -1    0    0  503  501  0.00000000000E+00  0.00000000000E+00  0.54523263661E+02  0.54523263661E+02  0.00000000000E+00 0. -1.
         21   -1    0    0  504  502 -0.00000000000E+00 -0.00000000000E+00 -0.14039377600E+02  0.14039377600E+02  0.00000000000E+00 0.  1.
         21    1    1    2  503  502 -0.14507789909E+02  0.19188389450E+02  0.33069916592E+01  0.24281813185E+02  0.00000000000E+00 0.  1.
         21    1    1    2  504  501  0.14507789909E+02 -0.19188389450E+02  0.37176894402E+02  0.44280828076E+02  0.00000000000E+00 0. -1.
<mgrwt>
<rscale>  2 0.24055566E+02</rscale>
<asrwt>0</asrwt>
<pdfrwt beam="1">  1       21 0.83881943E-02 0.24055566E+02</pdfrwt>
<pdfrwt beam="2">  1       21 0.21599043E-02 0.24055566E+02</pdfrwt>
<totfact> 0.83759023E+07</totfact>
</mgrwt>
</event>
<event>
 4    1  0.4353697E+006  0.2281745E+02  0.7546771E-02  0.1694486E+00
         21   -1    0    0  503  501  0.00000000000E+00  0.00000000000E+00  0.24097648394E+02  0.24097648394E+02  0.00000000000E+00 0. -1.
         21   -1    0    0  504  502 -0.00000000000E+00 -0.00000000000E+00 -0.66914083836E+02  0.66914083836E+02  0.00000000000E+00 0.  1.
         21    1    1    2  503  502 -0.55617053404E+01 -0.22129244373E+02 -0.58853749127E+02  0.63122102382E+02  0.00000000000E+00 0.  1.
         21    1    1    2  504  501  0.55617053404E+01  0.22129244373E+02  0.16037313685E+02  0.27889629848E+02  0.00000000000E+00 0. -1.
<mgrwt>
<rscale>  2 0.22817450E+02</rscale>
<asrwt>0</asrwt>
<pdfrwt beam="1">  1       21 0.37073305E-02 0.22817450E+02</pdfrwt>
<pdfrwt beam="2">  1       21 0.10294474E-01 0.22817450E+02</pdfrwt>
<totfact> 0.25453501E+07</totfact>
</mgrwt>
</event>
<event>
 4    1  0.4353697E+006  0.3636916E+02  0.7546771E-02  0.1536768E+00
         21   -1    0    0  502  501  0.00000000000E+00  0.00000000000E+00  0.13263209243E+02  0.13263209243E+02  0.00000000000E+00 0. -1.
         21   -1    0    0  503  502 -0.00000000000E+00 -0.00000000000E+00 -0.42824178945E+03  0.42824178945E+03  0.00000000000E+00 0. -1.
         21    1    1    2  503  504 -0.28569521776E+02 -0.22505515204E+02 -0.40083644519E+03  0.40248300782E+03  0.00000000000E+00 0. -1.
         21    1    1    2  504  501  0.28569521776E+02  0.22505515204E+02 -0.14142135018E+02  0.39021990877E+02  0.00000000000E+00 0. -1.
<mgrwt>
<rscale>  2 0.36369160E+02</rscale>
<asrwt>0</asrwt>
<pdfrwt beam="1">  1       21 0.20404941E-02 0.36369160E+02</pdfrwt>
<pdfrwt beam="2">  1       21 0.65883342E-01 0.36369160E+02</pdfrwt>
<totfact> 0.23525789E+06</totfact>
</mgrwt>
</event>
<event>
 4    1  0.4353697E+006  0.2108428E+02  0.7546771E-02  0.1724588E+00
         21   -1    0    0  503  501  0.00000000000E+00  0.00000000000E+00  0.89210429458E+01  0.89210429458E+01  0.00000000000E+00 0.  1.
         21   -1    0    0  504  502 -0.00000000000E+00 -0.00000000000E+00 -0.63554341009E+02  0.63554341009E+02  0.00000000000E+00 0.  1.
         21    1    1    2  503  502  0.14101304986E+02 -0.15674816634E+02 -0.44155558666E+02  0.48931176564E+02  0.00000000000E+00 0.  1.
         21    1    1    2  504  501 -0.14101304986E+02  0.15674816634E+02 -0.10477739397E+02  0.23544207391E+02  0.00000000000E+00 0.  1.
<mgrwt>
<rscale>  2 0.21084276E+02</rscale>
<asrwt>0</asrwt>
<pdfrwt beam="1">  1       21 0.13724681E-02 0.21084276E+02</pdfrwt>
<pdfrwt beam="2">  1       21 0.97775910E-02 0.21084276E+02</pdfrwt>
<totfact> 0.12522140E+08</totfact>
</mgrwt>
</event>
<event>
 4    1  0.4353697E+006  0.4870176E+02  0.7546771E-02  0.1452472E+00
         21   -1    0    0  503  501  0.00000000000E+00  0.00000000000E+00  0.78287610648E+01  0.78287610648E+01  0.00000000000E+00 0. -1.
         21   -1    0    0  501  502 -0.00000000000E+00 -0.00000000000E+00 -0.42601982856E+03  0.42601982856E+03  0.00000000000E+00 0. -1.
         21    1    1    2  503  504 -0.47567729441E+02 -0.10448579587E+02 -0.92511826694E+02  0.10454807400E+03  0.00000000000E+00 0. -1.
         21    1    1    2  504  502  0.47567729441E+02  0.10448579587E+02 -0.32567924080E+03  0.32930051562E+03  0.00000000000E+00 0. -1.
<mgrwt>
<rscale>  2 0.48701763E+02</rscale>
<asrwt>0</asrwt>
<pdfrwt beam="1">  1       21 0.12044245E-02 0.48701763E+02</pdfrwt>
<pdfrwt beam="2">  1       21 0.65541528E-01 0.48701763E+02</pdfrwt>
<totfact> 0.55315051E+06</totfact>
</mgrwt>
</event>
<event>
 4    1  0.4353697E+006  0.2481456E+02  0.7546771E-02  0.1663680E+00
         21   -1    0    0  503  501  0.00000000000E+00  0.00000000000E+00  0.92714858337E+01  0.92714858337E+01  0.00000000000E+00 0. -1.
         21   -1    0    0  504  502 -0.00000000000E+00 -0.00000000000E+00 -0.94401489628E+03  0.94401489628E+03  0.00000000000E+00 0. -1.
         21    1    1    2  503  502  0.13707675573E+02  0.20684821297E+02 -0.92694241915E+03  0.92727450661E+03  0.00000000000E+00 0. -1.
         21    1    1    2  504  501 -0.13707675573E+02 -0.20684821297E+02 -0.78009912977E+01  0.26011875498E+02  0.00000000000E+00 0. -1.
<mgrwt>
<rscale>  2 0.24814556E+02</rscale>
<asrwt>0</asrwt>
<pdfrwt beam="1">  1       21 0.14263826E-02 0.24814556E+02</pdfrwt>
<pdfrwt beam="2">  1       21 0.14523305E+00 0.24814556E+02</pdfrwt>
<totfact> 0.69430378E+05</totfact>
</mgrwt>
</event>
<event>
 4    1  0.4353697E+006  0.2929177E+02  0.7546771E-02  0.1606052E+00
         21   -1    0    0  502  501  0.00000000000E+00  0.00000000000E+00  0.55222603546E+01  0.55222603546E+01  0.00000000000E+00 0.  1.
         21   -1    0    0  503  502 -0.00000000000E+00 -0.00000000000E+00 -0.23181182900E+03  0.23181182900E+03  0.00000000000E+00 0.  1.
         21    1    1    2  503  504 -0.10626118718E+02  0.27296397351E+02 -0.18128768293E+03  0.18363886214E+03  0.00000000000E+00 0.  1.
         21    1    1    2  504  501  0.10626118718E+02 -0.27296397351E+02 -0.45001885720E+02  0.53695227215E+02  0.00000000000E+00 0.  1.
<mgrwt>
<rscale>  2 0.29291769E+02</rscale>
<asrwt>0</asrwt>
<pdfrwt beam="1">  1       21 0.84957846E-03 0.29291769E+02</pdfrwt>
<pdfrwt beam="2">  1       21 0.35663361E-01 0.29291769E+02</pdfrwt>
<totfact> 0.29236377E+07</totfact>
</mgrwt>
</event>
<event>
 4    1  0.4353697E+006  0.2436920E+02  0.7546771E-02  0.1670231E+00
         21   -1    0    0  503  501  0.00000000000E+00  0.00000000000E+00  0.23350848037E+02  0.23350848037E+02  0.00000000000E+00 0.  1.
         21   -1    0    0  501  502 -0.00000000000E+00 -0.00000000000E+00 -0.37720757692E+02  0.37720757692E+02  0.00000000000E+00 0.  1.
         21    1    1    2  503  504 -0.24149660653E+02  0.32637209653E+01  0.10244095437E+02  0.26434815594E+02  0.00000000000E+00 0.  1.
         21    1    1    2  504  502  0.24149660653E+02 -0.32637209653E+01 -0.24614005091E+02  0.34636790134E+02  0.00000000000E+00 0.  1.
<mgrwt>
<rscale>  2 0.24369202E+02</rscale>
<asrwt>0</asrwt>
<pdfrwt beam="1">  1       21 0.35924382E-02 0.24369202E+02</pdfrwt>
<pdfrwt beam="2">  1       21 0.58031935E-02 0.24369202E+02</pdfrwt>
<totfact> 0.69248054E+07</totfact>
</mgrwt>
</event>
<event>
 4    1  0.4353697E+006  0.4349619E+02  0.7546771E-02  0.1483954E+00
         21   -1    0    0  503  501  0.00000000000E+00  0.00000000000E+00  0.84359467139E+03  0.84359467139E+03  0.00000000000E+00 0.  1.
         21   -1    0    0  501  502 -0.00000000000E+00 -0.00000000000E+00 -0.44096552359E+02  0.44096552359E+02  0.00000000000E+00 0. -1.
         21    1    1    2  503  504  0.38505567649E+01 -0.43325412479E+02  0.83216072627E+03  0.83329670136E+03  0.00000000000E+00 0.  1.
         21    1    1    2  504  502 -0.38505567649E+01  0.43325412479E+02 -0.32662607240E+02  0.54394522386E+02  0.00000000000E+00 0. -1.
<mgrwt>
<rscale>  2 0.43496186E+02</rscale>
<asrwt>0</asrwt>
<pdfrwt beam="1">  1       21 0.12978378E+00 0.43496186E+02</pdfrwt>
<pdfrwt beam="2">  1       21 0.67840856E-02 0.43496186E+02</pdfrwt>
<totfact> 0.76748237E+04</totfact>
</mgrwt>
</event>
<event>
 4    1  0.4353697E+006  0.2713049E+02  0.7546771E-02  0.1632161E+00
         21   -1    0    0  504  501  0.00000000000E+00  0.00000000000E+00  0.39436756002E+01  0.39436756002E+01  0.00000000000E+00 0. -1.
         21   -1    0    0  503  502 -0.00000000000E+00 -0.00000000000E+00 -0.43375189612E+03  0.43375189612E+03  0.00000000000E+00 0. -1.
         21    1    1    2  503  501  0.22882100655E+02  0.14576454115E+02 -0.38008687876E+03  0.38105393181E+03  0.00000000000E+00 0. -1.
         21    1    1    2  504  502 -0.22882100655E+02 -0.14576454115E+02 -0.49721341760E+02  0.56641639907E+02  0.00000000000E+00 0. -1.
<mgrwt>
<rscale>  2 0.27130491E+02</rscale>
<asrwt>0</asrwt>
<pdfrwt beam="1">  1       21 0.60671929E-03 0.27130491E+02</pdfrwt>
<pdfrwt beam="2">  1       21 0.66731065E-01 0.27130491E+02</pdfrwt>
<totfact> 0.14016179E+07</totfact>
</mgrwt>
</event>
<event>
 4    1  0.4353697E+006  0.2035090E+02  0.7546771E-02  0.1738439E+00
         21   -1    0    0  504  501  0.00000000000E+00  0.00000000000E+00  0.14743139362E+01  0.14743139362E+01  0.00000000000E+00 0.  1.
         21   -1    0    0  503  502 -0.00000000000E+00 -0.00000000000E+00 -0.29539091070E+03  0.29539091070E+03  0.00000000000E+00 0.  1.
         21    1    1    2  503  501  0.19245030651E+02 -0.66172592819E+01 -0.17981538342E+03  0.18096334281E+03  0.00000000000E+00 0.  1.
         21    1    1    2  504  502 -0.19245030651E+02  0.66172592819E+01 -0.11410121334E+03  0.11590188183E+03  0.00000000000E+00 0.  1.
<mgrwt>
<rscale>  2 0.20350905E+02</rscale>
<asrwt>0</asrwt>
<pdfrwt beam="1">  1       21 0.22681761E-03 0.20350905E+02</pdfrwt>
<pdfrwt beam="2">  1       21 0.45444739E-01 0.20350905E+02</pdfrwt>
<totfact> 0.11873048E+08</totfact>
</mgrwt>
</event>
<event>
 4    1  0.4353697E+006  0.2043146E+02  0.7546771E-02  0.1736882E+00
         21   -1    0    0  503  501  0.00000000000E+00  0.00000000000E+00  0.13740519468E+02  0.13740519468E+02  0.00000000000E+00 0.  1.
         21   -1    0    0  504  502 -0.00000000000E+00 -0.00000000000E+00 -0.66378359366E+02  0.66378359366E+02  0.00000000000E+00 0. -1.
         21    1    1    2  503  502 -0.71749527822E+01 -0.19130205696E+02 -0.55819432968E+02  0.59441179449E+02  0.00000000000E+00 0. -1.
         21    1    1    2  504  501  0.71749527822E+01  0.19130205696E+02  0.31815930703E+01  0.20677699385E+02  0.00000000000E+00 0.  1.
<mgrwt>
<rscale>  2 0.20431464E+02</rscale>
<asrwt>0</asrwt>
<pdfrwt beam="1">  1       21 0.21139261E-02 0.20431464E+02</pdfrwt>
<pdfrwt beam="2">  1       21 0.10212055E-01 0.20431464E+02</pdfrwt>
<totfact> 0.59905153E+07</totfact>
</mgrwt>
</event>
<event>
 4    1  0.4353697E+006  0.2104479E+02  0.7546771E-02  0.1725315E+00
         21   -1    0    0  504  501  0.00000000000E+00  0.00000000000E+00  0.18757123559E+03  0.18757123559E+03  0.00000000000E+00 0.  1.
         21   -1    0    0  503  502 -0.00000000000E+00 -0.00000000000E+00 -0.34413112904E+01  0.34413112904E+01  0.00000000000E+00 0. -1.
         21    1    1    2  503  501 -0.18605270003E+02  0.98349846648E+01  0.14557251780E+03  0.14708582846E+03  0.00000000000E+00 0.  1.
         21    1    1    2  504  502  0.18605270003E+02 -0.98349846648E+01  0.38557406504E+02  0.43926718424E+02  0.00000000000E+00 0. -1.
<mgrwt>
<rscale>  2 0.21044785E+02</rscale>
<asrwt>0</asrwt>
<pdfrwt beam="1">  1       21 0.28857105E-01 0.21044785E+02</pdfrwt>
<pdfrwt beam="2">  1       21 0.52943265E-03 0.21044785E+02</pdfrwt>
<totfact> 0.80852350E+07</totfact>
</mgrwt>
</event>
<event>
 4    1  0.4353697E+006  0.2178586E+02  0.7546771E-02  0.1711982E+00
         21   -1    0    0  502  501  0.00000000000E+00  0.00000000000E+00  0.62250986334E+03  0.62250986334E+03  0.00000000000E+00 0. -1.
         21   -1    0    0  504  502 -0.00000000000E+00 -0.00000000000E+00 -0.18449324971E+01  0.18449324971E+01  0.00000000000E+00 0. -1.
         21    1    1    2  503  501 -0.70792335382E+01 -0.20603592804E+02  0.54945724207E+03  0.54988897466E+03  0.00000000000E+00 0. -1.
         21    1    1    2  504  503  0.70792335382E+01  0.20603592804E+02  0.71207688767E+02  0.74465821176E+02  0.00000000000E+00 0. -1.
<mgrwt>
<rscale>  2 0.21785857E+02</rscale>
<asrwt>0</asrwt>
<pdfrwt beam="1">  1       21 0.95770580E-01 0.21785857E+02</pdfrwt>
<pdfrwt beam="2">  1       21 0.28383627E-03 0.21785857E+02</pdfrwt>
<totfact> 0.19264814E+07</totfact>
</mgrwt>
</event>
<event>
 4    1  0.4353697E+006  0.2133454E+02  0.7546771E-02  0.1720022E+00
         21   -1    0    0  503  501  0.00000000000E+00  0.00000000000E+00  0.67477331193E+03  0.67477331193E+03  0.00000000000E+00 0. -1.
         21   -1    0    0  501  502 -0.00000000000E+00 -0.00000000000E+00 -0.27403596436E+02  0.27403596436E+02  0.00000000000E+00 0. -1.
         21    1    1    2  503  504  0.20217697316E+02  0.68122763798E+01  0.67042535711E+03  0.67076472913E+03  0.00000000000E+00 0. -1.
         21    1    1    2  504  502 -0.20217697316E+02 -0.68122763798E+01 -0.23055641612E+02  0.31412179236E+02  0.00000000000E+00 0. -1.
<mgrwt>
<rscale>  2 0.21334535E+02</rscale>
<asrwt>0</asrwt>
<pdfrwt beam="1">  1       21 0.10381127E+00 0.21334535E+02</pdfrwt>
<pdfrwt beam="2">  1       21 0.42159384E-02 0.21334535E+02</pdfrwt>
<totfact> 0.27710746E+05</totfact>
</mgrwt>
</event>
<event>
 4    1  0.4353697E+006  0.2279504E+02  0.7546771E-02  0.1694854E+00
         21   -1    0    0  503  501  0.00000000000E+00  0.00000000000E+00  0.66280979215E+02  0.66280979215E+02  0.00000000000E+00 0.  1.
         21   -1    0    0  501  502 -0.00000000000E+00 -0.00000000000E+00 -0.21550327147E+02  0.21550327147E+02  0.00000000000E+00 0.  1.
         21    1    1    2  503  504 -0.11878672943E+02 -0.19455360156E+02  0.57393963423E+02  0.61755007466E+02  0.00000000000E+00 0.  1.
         21    1    1    2  504  502  0.11878672943E+02  0.19455360156E+02 -0.12663311355E+02  0.26076298897E+02  0.00000000000E+00 0.  1.
<mgrwt>
<rscale>  2 0.22795041E+02</rscale>
<asrwt>0</asrwt>
<pdfrwt beam="1">  1       21 0.10197074E-01 0.22795041E+02</pdfrwt>
<pdfrwt beam="2">  1       21 0.33154350E-02 0.22795041E+02</pdfrwt>
<totfact> 0.30795968E+07</totfact>
</mgrwt>
</event>
<event>
 4    1  0.4353697E+006  0.1140401E+03  0.7546771E-02  0.1253266E+00
         21   -1    0    0  502  501  0.00000000000E+00  0.00000000000E+00  0.45638549024E+02  0.45638549024E+02  0.00000000000E+00 0. -1.
         21   -1    0    0  503  502 -0.00000000000E+00 -0.00000000000E+00 -0.53550767277E+03  0.53550767277E+03  0.00000000000E+00 0. -1.
         21    1    1    2  503  504 -0.11358227338E+03 -0.10208018871E+02 -0.44368963612E+03  0.45811093599E+03  0.00000000000E+00 0. -1.
         21    1    1    2  504  501  0.11358227338E+03  0.10208018871E+02 -0.46179487627E+02  0.12303528580E+03  0.00000000000E+00 0. -1.
<mgrwt>
<rscale>  2 0.11404007E+03</rscale>
<asrwt>0</asrwt>
<pdfrwt beam="1">  1       21 0.70213153E-02 0.11404007E+03</pdfrwt>
<pdfrwt beam="2">  1       21 0.82385795E-01 0.11404007E+03</pdfrwt>
<totfact> 0.19831968E+05</totfact>
</mgrwt>
</event>
<event>
 4    1  0.4353697E+006  0.2917902E+02  0.7546771E-02  0.1607345E+00
         21   -1    0    0  503  501  0.00000000000E+00  0.00000000000E+00  0.12819508681E+03  0.12819508681E+03  0.00000000000E+00 0. -1.
         21   -1    0    0  504  502 -0.00000000000E+00 -0.00000000000E+00 -0.10049544117E+02  0.10049544117E+02  0.00000000000E+00 0. -1.
         21    1    1    2  503  502  0.24161626066E+02  0.16359435885E+02  0.18820174816E+02  0.34721956983E+02  0.00000000000E+00 0. -1.
         21    1    1    2  504  501 -0.24161626066E+02 -0.16359435885E+02  0.99325367877E+02  0.10352267394E+03  0.00000000000E+00 0. -1.
<mgrwt>
<rscale>  2 0.29179022E+02</rscale>
<asrwt>0</asrwt>
<pdfrwt beam="1">  1       21 0.19722320E-01 0.29179022E+02</pdfrwt>
<pdfrwt beam="2">  1       21 0.15460838E-02 0.29179022E+02</pdfrwt>
<totfact> 0.34428960E+07</totfact>
</mgrwt>
</event>
<event>
 4    1  0.4353697E+006  0.2060956E+02  0.7546771E-02  0.1733471E+00
         21   -1    0    0  504  501  0.00000000000E+00  0.00000000000E+00  0.40245126297E+02  0.40245126297E+02  0.00000000000E+00 0. -1.
         21   -1    0    0  501  502 -0.00000000000E+00 -0.00000000000E+00 -0.23049717590E+02  0.23049717590E+02  0.00000000000E+00 0.  1.
         21    1    1    2  503  502  0.19999525530E+02  0.49772477187E+01 -0.14703755528E+02  0.25317078088E+02  0.00000000000E+00 0.  1.
         21    1    1    2  504  503 -0.19999525530E+02 -0.49772477187E+01  0.31899164234E+02  0.37977765800E+02  0.00000000000E+00 0. -1.
<mgrwt>
<rscale>  2 0.20609561E+02</rscale>
<asrwt>0</asrwt>
<pdfrwt beam="1">  1       21 0.61915579E-02 0.20609561E+02</pdfrwt>
<pdfrwt beam="2">  1       21 0.35461104E-02 0.20609561E+02</pdfrwt>
<totfact> 0.60848629E+07</totfact>
</mgrwt>
</event>
<event>
 4    1  0.4353697E+006  0.2747612E+02  0.7546771E-02  0.1627789E+00
         21   -1    0    0  503  501  0.00000000000E+00  0.00000000000E+00  0.45021483060E+02  0.45021483060E+02  0.00000000000E+00 0. -1.
         21   -1    0    0  504  502 -0.00000000000E+00 -0.00000000000E+00 -0.27244913786E+02  0.27244913786E+02  0.00000000000E+00 0. -1.
         21    1    1    2  503  502  0.91459363068E+01 -0.25909247983E+02 -0.13518137863E+02  0.30621517488E+02  0.00000000000E+00 0. -1.
         21    1    1    2  504  501 -0.91459363068E+01  0.25909247983E+02  0.31294707138E+02  0.41644879359E+02  0.00000000000E+00 0. -1.
<mgrwt>
<rscale>  2 0.27476122E+02</rscale>
<asrwt>0</asrwt>
<pdfrwt beam="1">  1       21 0.69263820E-02 0.27476122E+02</pdfrwt>
<pdfrwt beam="2">  1       21 0.41915252E-02 0.27476122E+02</pdfrwt>
<totfact> 0.41949232E+07</totfact>
</mgrwt>
</event>
<event>
 4    1  0.4353697E+006  0.2261410E+02  0.7546771E-02  0.1697843E+00
         21   -1    0    0  502  501  0.00000000000E+00  0.00000000000E+00  0.11478375612E+03  0.11478375612E+03  0.00000000000E+00 0.  1.
         21   -1    0    0  503  502 -0.00000000000E+00 -0.00000000000E+00 -0.36333039633E+02  0.36333039633E+02  0.00000000000E+00 0. -1.
         21    1    1    2  503  504 -0.12657692077E+02  0.18739804540E+02 -0.31548936827E+02  0.38816656963E+02  0.00000000000E+00 0. -1.
         21    1    1    2  504  501  0.12657692077E+02 -0.18739804540E+02  0.10999965331E+03  0.11230013879E+03  0.00000000000E+00 0.  1.
<mgrwt>
<rscale>  2 0.22614098E+02</rscale>
<asrwt>0</asrwt>
<pdfrwt beam="1">  1       21 0.17659039E-01 0.22614098E+02</pdfrwt>
<pdfrwt beam="2">  1       21 0.55896984E-02 0.22614098E+02</pdfrwt>
<totfact> 0.53291802E+06</totfact>
</mgrwt>
</event>
<event>
 4    1  0.4353697E+006  0.2239580E+02  0.7546771E-02  0.1701495E+00
         21   -1    0    0  502  501  0.00000000000E+00  0.00000000000E+00  0.52046863169E+01  0.52046863169E+01  0.00000000000E+00 0. -1.
         21   -1    0    0  503  502 -0.00000000000E+00 -0.00000000000E+00 -0.98395813767E+02  0.98395813767E+02  0.00000000000E+00 0. -1.
         21    1    1    2  503  504  0.18696644293E+02  0.12329119680E+02 -0.54029588949E+02  0.58487333517E+02  0.00000000000E+00 0. -1.
         21    1    1    2  504  501 -0.18696644293E+02 -0.12329119680E+02 -0.39161538501E+02  0.45113166566E+02  0.00000000000E+00 0. -1.
<mgrwt>
<rscale>  2 0.22395796E+02</rscale>
<asrwt>0</asrwt>
<pdfrwt beam="1">  1       21 0.80072099E-03 0.22395796E+02</pdfrwt>
<pdfrwt beam="2">  1       21 0.15137817E-01 0.22395796E+02</pdfrwt>
<totfact> 0.13777950E+08</totfact>
</mgrwt>
</event>
<event>
 4    1  0.4353697E+006  0.2443031E+02  0.7546771E-02  0.1669322E+00
         21   -1    0    0  502  501  0.00000000000E+00  0.00000000000E+00  0.15150378159E+04  0.15150378159E+04  0.00000000000E+00 0.  1.
         21   -1    0    0  503  502 -0.00000000000E+00 -0.00000000000E+00 -0.46133280444E+00  0.46133280444E+00  0.00000000000E+00 0. -1.
         21    1    1    2  503  504  0.38097166890E+01  0.24131434038E+02  0.46767899498E+03  0.46831664758E+03  0.00000000000E+00 0. -1.
         21    1    1    2  504  501 -0.38097166890E+01 -0.24131434038E+02  0.10468974881E+04  0.10471825011E+04  0.00000000000E+00 0.  1.
<mgrwt>
<rscale>  2 0.24430310E+02</rscale>
<asrwt>0</asrwt>
<pdfrwt beam="1">  1       21 0.23307876E+00 0.24430310E+02</pdfrwt>
<pdfrwt beam="2">  1       21 0.70975490E-04 0.24430310E+02</pdfrwt>
<totfact> 0.16953379E+07</totfact>
</mgrwt>
</event>
<event>
 4    1  0.4353697E+006  0.2249891E+02  0.7546771E-02  0.1699764E+00
         21   -1    0    0  503  501  0.00000000000E+00  0.00000000000E+00  0.12413269431E+02  0.12413269431E+02  0.00000000000E+00 0. -1.
         21   -1    0    0  501  502 -0.00000000000E+00 -0.00000000000E+00 -0.17212842243E+03  0.17212842243E+03  0.00000000000E+00 0.  1.
         21    1    1    2  503  504  0.13664030479E+02 -0.17874425362E+02  0.74562255353E+00  0.22511258604E+02  0.00000000000E+00 0. -1.
         21    1    1    2  504  502 -0.13664030479E+02  0.17874425362E+02 -0.16046077556E+03  0.16203043326E+03  0.00000000000E+00 0.  1.
<mgrwt>
<rscale>  2 0.22498907E+02</rscale>
<asrwt>0</asrwt>
<pdfrwt beam="1">  1       21 0.19097338E-02 0.22498907E+02</pdfrwt>
<pdfrwt beam="2">  1       21 0.26481295E-01 0.22498907E+02</pdfrwt>
<totfact> 0.13993537E+07</totfact>
</mgrwt>
</event>
<event>
 4    1  0.4353697E+006  0.2300891E+02  0.7546771E-02  0.1691366E+00
         21   -1    0    0  504  501  0.00000000000E+00  0.00000000000E+00  0.38727951729E+03  0.38727951729E+03  0.00000000000E+00 0.  1.
         21   -1    0    0  503  502 -0.00000000000E+00 -0.00000000000E+00 -0.16278669545E+01  0.16278669545E+01  0.00000000000E+00 0.  1.
         21    1    1    2  503  501 -0.90005648303E+01 -0.21175453231E+02  0.11498298610E+03  0.11726251353E+03  0.00000000000E+00 0.  1.
         21    1    1    2  504  502  0.90005648303E+01  0.21175453231E+02  0.27066866423E+03  0.27164487071E+03  0.00000000000E+00 0.  1.
<mgrwt>
<rscale>  2 0.23008911E+02</rscale>
<asrwt>0</asrwt>
<pdfrwt beam="1">  1       21 0.59581391E-01 0.23008911E+02</pdfrwt>
<pdfrwt beam="2">  1       21 0.25044138E-03 0.23008911E+02</pdfrwt>
<totfact> 0.62620021E+07</totfact>
</mgrwt>
</event>
<event>
 4    1  0.4353697E+006  0.2209350E+02  0.7546771E-02  0.1706640E+00
         21   -1    0    0  504  501  0.00000000000E+00  0.00000000000E+00  0.13185854592E+03  0.13185854592E+03  0.00000000000E+00 0. -1.
         21   -1    0    0  503  502 -0.00000000000E+00 -0.00000000000E+00 -0.51107230778E+02  0.51107230778E+02  0.00000000000E+00 0.  1.
         21    1    1    2  503  501  0.10698746256E+01  0.22067577501E+02  0.12848306893E+03  0.13036879078E+03  0.00000000000E+00 0. -1.
         21    1    1    2  504  502 -0.10698746256E+01 -0.22067577501E+02 -0.47731753784E+02  0.52596985919E+02  0.00000000000E+00 0.  1.
<mgrwt>
<rscale>  2 0.22093497E+02</rscale>
<asrwt>0</asrwt>
<pdfrwt beam="1">  1       21 0.20285930E-01 0.22093497E+02</pdfrwt>
<pdfrwt beam="2">  1       21 0.78626509E-02 0.22093497E+02</pdfrwt>
<totfact> 0.24080314E+06</totfact>
</mgrwt>
</event>
<event>
 4    1  0.4353697E+006  0.2013730E+02  0.7546771E-02  0.1742611E+00
         21   -1    0    0  503  501  0.00000000000E+00  0.00000000000E+00  0.40919742870E+03  0.40919742870E+03  0.00000000000E+00 0.  1.
         21   -1    0    0  504  502 -0.00000000000E+00 -0.00000000000E+00 -0.10651086742E+02  0.10651086742E+02  0.00000000000E+00 0.  1.
         21    1    1    2  503  502 -0.14493523485E+02  0.13980301046E+02 -0.64689060549E+00  0.20147692369E+02  0.00000000000E+00 0.  1.
         21    1    1    2  504  501  0.14493523485E+02 -0.13980301046E+02  0.39919323256E+03  0.39970082307E+03  0.00000000000E+00 0.  1.
<mgrwt>
<rscale>  2 0.20137305E+02</rscale>
<asrwt>0</asrwt>
<pdfrwt beam="1">  1       21 0.62953438E-01 0.20137305E+02</pdfrwt>
<pdfrwt beam="2">  1       21 0.16386290E-02 0.20137305E+02</pdfrwt>
<totfact> 0.33795983E+06</totfact>
</mgrwt>
</event>
<event>
 4    1  0.4353697E+006  0.2280422E+02  0.7546771E-02  0.1694703E+00
         21   -1    0    0  504  501  0.00000000000E+00  0.00000000000E+00  0.61812560072E+01  0.61812560072E+01  0.00000000000E+00 0. -1.
         21   -1    0    0  503  502 -0.00000000000E+00 -0.00000000000E+00 -0.10473781815E+03  0.10473781815E+03  0.00000000000E+00 0. -1.
         21    1    1    2  503  501 -0.11334592606E+02  0.19787860077E+02 -0.73878264365E+02  0.77317723334E+02  0.00000000000E+00 0. -1.
         21    1    1    2  504  502  0.11334592606E+02 -0.19787860077E+02 -0.24678297780E+02  0.33601350825E+02  0.00000000000E+00 0. -1.
<mgrwt>
<rscale>  2 0.22804219E+02</rscale>
<asrwt>0</asrwt>
<pdfrwt beam="1">  1       21 0.95096251E-03 0.22804219E+02</pdfrwt>
<pdfrwt beam="2">  1       21 0.16113510E-01 0.22804219E+02</pdfrwt>
<totfact> 0.96262568E+07</totfact>
</mgrwt>
</event>
<event>
 4    1  0.4353697E+006  0.2772116E+02  0.7546771E-02  0.1624736E+00
         21   -1    0    0  504  501  0.00000000000E+00  0.00000000000E+00  0.44372209596E+03  0.44372209596E+03  0.00000000000E+00 0.  1.
         21   -1    0    0  503  502 -0.00000000000E+00 -0.00000000000E+00 -0.19964209003E+01  0.19964209003E+01  0.00000000000E+00 0.  1.
         21    1    1    2  503  501 -0.27036162143E+02 -0.61244428101E+01  0.30199080128E+03  0.30326046053E+03  0.00000000000E+00 0.  1.
         21    1    1    2  504  502  0.27036162143E+02  0.61244428101E+01  0.13973487378E+03  0.14245805633E+03  0.00000000000E+00 0.  1.
<mgrwt>
<rscale>  2 0.27721163E+02</rscale>
<asrwt>0</asrwt>
<pdfrwt beam="1">  1       21 0.68264859E-01 0.27721163E+02</pdfrwt>
<pdfrwt beam="2">  1       21 0.30714203E-03 0.27721163E+02</pdfrwt>
<totfact> 0.36737704E+07</totfact>
</mgrwt>
</event>
<event>
 4    1  0.4353697E+006  0.2038975E+02  0.7546771E-02  0.1737687E+00
         21   -1    0    0  503  501  0.00000000000E+00  0.00000000000E+00  0.29679327965E+02  0.29679327965E+02  0.00000000000E+00 0. -1.
         21   -1    0    0  504  502 -0.00000000000E+00 -0.00000000000E+00 -0.16083925449E+02  0.16083925449E+02  0.00000000000E+00 0. -1.
         21    1    1    2  503  502  0.11675439967E+02  0.16716040140E+02  0.15018582032E+02  0.25323895882E+02  0.00000000000E+00 0. -1.
         21    1    1    2  504  501 -0.11675439967E+02 -0.16716040140E+02 -0.14231795161E+01  0.20439357532E+02  0.00000000000E+00 0. -1.
<mgrwt>
<rscale>  2 0.20389750E+02</rscale>
<asrwt>0</asrwt>
<pdfrwt beam="1">  1       21 0.45660505E-02 0.20389750E+02</pdfrwt>
<pdfrwt beam="2">  1       21 0.24744501E-02 0.20389750E+02</pdfrwt>
<totfact> 0.17188111E+08</totfact>
</mgrwt>
</event>
<event>
 4    1  0.4353697E+006  0.3327427E+02  0.7546771E-02  0.1564482E+00
         21   -1    0    0  504  501  0.00000000000E+00  0.00000000000E+00  0.71862000819E+02  0.71862000819E+02  0.00000000000E+00 0. -1.
         21   -1    0    0  503  502 -0.00000000000E+00 -0.00000000000E+00 -0.49494157971E+03  0.49494157971E+03  0.00000000000E+00 0. -1.
         21    1    1    2  503  501  0.18461805556E+02  0.27682820560E+02 -0.49049571482E+03  0.49162304978E+03  0.00000000000E+00 0. -1.
         21    1    1    2  504  502 -0.18461805556E+02 -0.27682820560E+02  0.67416135935E+02  0.75180530744E+02  0.00000000000E+00 0. -1.
<mgrwt>
<rscale>  2 0.33274267E+02</rscale>
<asrwt>0</asrwt>
<pdfrwt beam="1">  1       21 0.11055692E-01 0.33274267E+02</pdfrwt>
<pdfrwt beam="2">  1       21 0.76144862E-01 0.33274267E+02</pdfrwt>
<totfact> 0.11281954E+05</totfact>
</mgrwt>
</event>
<event>
 4    1  0.4353697E+006  0.5039537E+02  0.7546771E-02  0.1443221E+00
         21   -1    0    0  504  501  0.00000000000E+00  0.00000000000E+00  0.74389584605E+02  0.74389584605E+02  0.00000000000E+00 0.  1.
         21   -1    0    0  503  502 -0.00000000000E+00 -0.00000000000E+00 -0.44440983246E+02  0.44440983246E+02  0.00000000000E+00 0.  1.
         21    1    1    2  503  501  0.87561500906E+01 -0.49628850207E+02  0.43578939762E+02  0.66624446925E+02  0.00000000000E+00 0.  1.
         21    1    1    2  504  502 -0.87561500906E+01  0.49628850207E+02 -0.13630338403E+02  0.52206120927E+02  0.00000000000E+00 0.  1.
<mgrwt>
<rscale>  2 0.50395366E+02</rscale>
<asrwt>0</asrwt>
<pdfrwt beam="1">  1       21 0.11444551E-01 0.50395366E+02</pdfrwt>
<pdfrwt beam="2">  1       21 0.68370743E-02 0.50395366E+02</pdfrwt>
<totfact> 0.90506135E+06</totfact>
</mgrwt>
</event>
<event>
 4    1  0.4353697E+006  0.2132133E+02  0.7546771E-02  0.1720261E+00
         21   -1    0    0  502  501  0.00000000000E+00  0.00000000000E+00  0.20010979044E+03  0.20010979044E+03  0.00000000000E+00 0.  1.
         21   -1    0    0  504  502 -0.00000000000E+00 -0.00000000000E+00 -0.27842065201E+02  0.27842065201E+02  0.00000000000E+00 0.  1.
         21    1    1    2  503  501 -0.13516044714E+02  0.16489860450E+02  0.19536098023E+03  0.19652102065E+03  0.00000000000E+00 0.  1.
         21    1    1    2  504  503  0.13516044714E+02 -0.16489860450E+02 -0.23093254987E+02  0.31430834991E+02  0.00000000000E+00 0.  1.
<mgrwt>
<rscale>  2 0.21321326E+02</rscale>
<asrwt>0</asrwt>
<pdfrwt beam="1">  1       21 0.30786121E-01 0.21321326E+02</pdfrwt>
<pdfrwt beam="2">  1       21 0.42833948E-02 0.21321326E+02</pdfrwt>
<totfact> 0.30151551E+06</totfact>
</mgrwt>
</event>
<event>
 4    1  0.4353697E+006  0.2753875E+02  0.7546771E-02  0.1627005E+00
         21   -1    0    0  503  501  0.00000000000E+00  0.00000000000E+00  0.29335177608E+02  0.29335177608E+02  0.00000000000E+00 0.  1.
         21   -1    0    0  501  502 -0.00000000000E+00 -0.00000000000E+00 -0.94901427688E+02  0.94901427688E+02  0.00000000000E+00 0. -1.
         21    1    1    2  503  504 -0.21902460501E+02 -0.16693265474E+02  0.20203003682E+02  0.34154710450E+02  0.00000000000E+00 0.  1.
         21    1    1    2  504  502  0.21902460501E+02  0.16693265474E+02 -0.85769253762E+02  0.90081894846E+02  0.00000000000E+00 0. -1.
<mgrwt>
<rscale>  2 0.27538752E+02</rscale>
<asrwt>0</asrwt>
<pdfrwt beam="1">  1       21 0.45131043E-02 0.27538752E+02</pdfrwt>
<pdfrwt beam="2">  1       21 0.14600220E-01 0.27538752E+02</pdfrwt>
<totfact> 0.10754305E+07</totfact>
</mgrwt>
</event>
<event>
 4    1  0.4353697E+006  0.2577925E+02  0.7546771E-02  0.1650055E+00
         21   -1    0    0  503  501  0.00000000000E+00  0.00000000000E+00  0.10976022363E+03  0.10976022363E+03  0.00000000000E+00 0.  1.
         21   -1    0    0  504  502 -0.00000000000E+00 -0.00000000000E+00 -0.22348642137E+03  0.22348642137E+03  0.00000000000E+00 0. -1.
         21    1    1    2  503  502 -0.19387289033E+02  0.16991248607E+02  0.10748762930E+03  0.11053578587E+03  0.00000000000E+00 0.  1.
         21    1    1    2  504  501  0.19387289033E+02 -0.16991248607E+02 -0.22121382703E+03  0.22271085913E+03  0.00000000000E+00 0. -1.
<mgrwt>
<rscale>  2 0.25779246E+02</rscale>
<asrwt>0</asrwt>
<pdfrwt beam="1">  1       21 0.16886188E-01 0.25779246E+02</pdfrwt>
<pdfrwt beam="2">  1       21 0.34382526E-01 0.25779246E+02</pdfrwt>
<totfact> 0.26280572E+05</totfact>
</mgrwt>
</event>
<event>
 4    1  0.4353697E+006  0.2023402E+02  0.7546771E-02  0.1740714E+00
         21   -1    0    0  503  501  0.00000000000E+00  0.00000000000E+00  0.15771320388E+02  0.15771320388E+02  0.00000000000E+00 0. -1.
         21   -1    0    0  504  502 -0.00000000000E+00 -0.00000000000E+00 -0.60428549297E+02  0.60428549297E+02  0.00000000000E+00 0. -1.
         21    1    1    2  503  502 -0.19653881273E+02 -0.48104433268E+01  0.64465538382E+01  0.21236135959E+02  0.00000000000E+00 0. -1.
         21    1    1    2  504  501  0.19653881273E+02  0.48104433268E+01 -0.51103782747E+02  0.54963733726E+02  0.00000000000E+00 0. -1.
<mgrwt>
<rscale>  2 0.20234016E+02</rscale>
<asrwt>0</asrwt>
<pdfrwt beam="1">  1       21 0.24263569E-02 0.20234016E+02</pdfrwt>
<pdfrwt beam="2">  1       21 0.92967001E-02 0.20234016E+02</pdfrwt>
<totfact> 0.56429265E+07</totfact>
</mgrwt>
</event>
<event>
 4    1  0.4353697E+006  0.2791722E+02  0.7546771E-02  0.1622322E+00
         21   -1    0    0  502  501  0.00000000000E+00  0.00000000000E+00  0.13145658394E+01  0.13145658394E+01  0.00000000000E+00 0. -1.
         21   -1    0    0  503  502 -0.00000000000E+00 -0.00000000000E+00 -0.20333964175E+04  0.20333964175E+04  0.00000000000E+00 0.  1.
         21    1    1    2  503  504  0.27911661868E+02 -0.55721581714E+00 -0.18723327164E+04  0.18725408332E+04  0.00000000000E+00 0.  1.
         21    1    1    2  504  501 -0.27911661868E+02  0.55721581714E+00 -0.15974913534E+03  0.16217015015E+03  0.00000000000E+00 0. -1.
<mgrwt>
<rscale>  2 0.27917223E+02</rscale>
<asrwt>0</asrwt>
<pdfrwt beam="1">  1       21 0.20224061E-03 0.27917223E+02</pdfrwt>
<pdfrwt beam="2">  1       21 0.31283066E+00 0.27917223E+02</pdfrwt>
<totfact> 0.15212589E+06</totfact>
</mgrwt>
</event>
<event>
 4    1  0.4353697E+006  0.2268875E+02  0.7546771E-02  0.1696606E+00
         21   -1    0    0  504  501  0.00000000000E+00  0.00000000000E+00  0.74331967798E+02  0.74331967798E+02  0.00000000000E+00 0.  1.
         21   -1    0    0  503  502 -0.00000000000E+00 -0.00000000000E+00 -0.69688540540E+01  0.69688540540E+01  0.00000000000E+00 0.  1.
         21    1    1    2  503  501  0.13888235843E+02  0.17941463270E+02  0.30471891296E+02  0.37990990488E+02  0.00000000000E+00 0.  1.
         21    1    1    2  504  502 -0.13888235843E+02 -0.17941463270E+02  0.36891222448E+02  0.43309831364E+02  0.00000000000E+00 0.  1.
<mgrwt>
<rscale>  2 0.22688746E+02</rscale>
<asrwt>0</asrwt>
<pdfrwt beam="1">  1       21 0.11435687E-01 0.22688746E+02</pdfrwt>
<pdfrwt beam="2">  1       21 0.10721314E-02 0.22688746E+02</pdfrwt>
<totfact> 0.14327132E+08</totfact>
</mgrwt>
</event>
<event>
 4    1  0.4353697E+006  0.2072530E+02  0.7546771E-02  0.1731278E+00
         21   -1    0    0  502  501  0.00000000000E+00  0.00000000000E+00  0.59997680838E+02  0.59997680838E+02  0.00000000000E+00 0. -1.
         21   -1    0    0  504  502 -0.00000000000E+00 -0.00000000000E+00 -0.22472138851E+02  0.22472138851E+02  0.00000000000E+00 0. -1.
         21    1    1    2  503  501  0.16898849222E+02  0.11998627311E+02  0.52801353410E+02  0.56723197056E+02  0.00000000000E+00 0. -1.
         21    1    1    2  504  503 -0.16898849222E+02 -0.11998627311E+02 -0.15275811422E+02  0.25746622633E+02  0.00000000000E+00 0. -1.
<mgrwt>
<rscale>  2 0.20725302E+02</rscale>
<asrwt>0</asrwt>
<pdfrwt beam="1">  1       21 0.92304124E-02 0.20725302E+02</pdfrwt>
<pdfrwt beam="2">  1       21 0.34572522E-02 0.20725302E+02</pdfrwt>
<totfact> 0.33206810E+07</totfact>
</mgrwt>
</event>
<event>
 4    1  0.4353697E+006  0.2090511E+02  0.7546771E-02  0.1727906E+00
         21   -1    0    0  503  501  0.00000000000E+00  0.00000000000E+00  0.55898701711E+02  0.55898701711E+02  0.00000000000E+00 0. -1.
         21   -1    0    0  504  502 -0.00000000000E+00 -0.00000000000E+00 -0.79027966252E+01  0.79027966252E+01  0.00000000000E+00 0.  1.
         21    1    1    2  503  502 -0.17805060097E+02  0.10954605479E+02  0.27299792938E+02  0.34384622155E+02  0.00000000000E+00 0.  1.
         21    1    1    2  504  501  0.17805060097E+02 -0.10954605479E+02  0.20696112148E+02  0.29416876182E+02  0.00000000000E+00 0. -1.
<mgrwt>
<rscale>  2 0.20905108E+02</rscale>
<asrwt>0</asrwt>
<pdfrwt beam="1">  1       21 0.85998000E-02 0.20905108E+02</pdfrwt>
<pdfrwt beam="2">  1       21 0.12158149E-02 0.20905108E+02</pdfrwt>
<totfact> 0.18504277E+08</totfact>
</mgrwt>
</event>
<event>
 4    1  0.4353697E+006  0.2767164E+02  0.7546771E-02  0.1625350E+00
         21   -1    0    0  503  501  0.00000000000E+00  0.00000000000E+00  0.23330275028E+03  0.23330275028E+03  0.00000000000E+00 0.  1.
         21   -1    0    0  504  502 -0.00000000000E+00 -0.00000000000E+00 -0.44067943181E+01  0.44067943181E+01  0.00000000000E+00 0.  1.
         21    1    1    2  503  502  0.15588602613E+02 -0.22862962046E+02  0.54403193356E+02  0.61036276199E+02  0.00000000000E+00 0.  1.
         21    1    1    2  504  501 -0.15588602613E+02  0.22862962046E+02  0.17449276261E+03  0.17667326840E+03  0.00000000000E+00 0.  1.
<mgrwt>
<rscale>  2 0.27671638E+02</rscale>
<asrwt>0</asrwt>
<pdfrwt beam="1">  1       21 0.35892721E-01 0.27671638E+02</pdfrwt>
<pdfrwt beam="2">  1       21 0.67796854E-03 0.27671638E+02</pdfrwt>
<totfact> 0.40066159E+07</totfact>
</mgrwt>
</event>
<event>
 4    1  0.4353697E+006  0.2501285E+02  0.7546771E-02  0.1660817E+00
         21   -1    0    0  503  501  0.00000000000E+00  0.00000000000E+00  0.17898273999E+01  0.17898273999E+01  0.00000000000E+00 0. -1.
         21   -1    0    0  504  502 -0.00000000000E+00 -0.00000000000E+00 -0.70843383812E+03  0.70843383812E+03  0.00000000000E+00 0.  1.
         21    1    1    2  503  502 -0.53289825733E+01  0.24438590457E+02 -0.10057294983E+03  0.10363667785E+03  0.00000000000E+00 0. -1.
         21    1    1    2  504  501  0.53289825733E+01 -0.24438590457E+02 -0.60607106089E+03  0.60658698767E+03  0.00000000000E+00 0.  1.
<mgrwt>
<rscale>  2 0.25012852E+02</rscale>
<asrwt>0</asrwt>
<pdfrwt beam="1">  1       21 0.27535796E-03 0.25012852E+02</pdfrwt>
<pdfrwt beam="2">  1       21 0.10898986E+00 0.25012852E+02</pdfrwt>
<totfact> 0.15533226E+07</totfact>
</mgrwt>
</event>
<event>
 4    1  0.4353697E+006  0.2159703E+02  0.7546771E-02  0.1715316E+00
         21   -1    0    0  503  501  0.00000000000E+00  0.00000000000E+00  0.10494890850E+02  0.10494890850E+02  0.00000000000E+00 0. -1.
         21   -1    0    0  504  502 -0.00000000000E+00 -0.00000000000E+00 -0.10338763891E+03  0.10338763891E+03  0.00000000000E+00 0. -1.
         21    1    1    2  503  502  0.38053980618E+01 -0.21259125961E+02 -0.89440832195E+02  0.92011379486E+02  0.00000000000E+00 0. -1.
         21    1    1    2  504  501 -0.38053980618E+01  0.21259125961E+02 -0.34519158612E+01  0.21871150271E+02  0.00000000000E+00 0. -1.
<mgrwt>
<rscale>  2 0.21597025E+02</rscale>
<asrwt>0</asrwt>
<pdfrwt beam="1">  1       21 0.16145985E-02 0.21597025E+02</pdfrwt>
<pdfrwt beam="2">  1       21 0.15905791E-01 0.21597025E+02</pdfrwt>
<totfact> 0.43628853E+07</totfact>
</mgrwt>
</event>
<event>
 4    1  0.4353697E+006  0.2889842E+02  0.7546771E-02  0.1610594E+00
         21   -1    0    0  503  501  0.00000000000E+00  0.00000000000E+00  0.22904365417E+02  0.22904365417E+02  0.00000000000E+00 0.  1.
         21   -1    0    0  504  502 -0.00000000000E+00 -0.00000000000E+00 -0.48042714371E+02  0.48042714371E+02  0.00000000000E+00 0. -1.
         21    1    1    2  503  502  0.22500236516E+02  0.18134439047E+02  0.48478986612E+01  0.29302229339E+02  0.00000000000E+00 0.  1.
         21    1    1    2  504  501 -0.22500236516E+02 -0.18134439047E+02 -0.29986247615E+02  0.41644850448E+02  0.00000000000E+00 0. -1.
<mgrwt>
<rscale>  2 0.28898417E+02</rscale>
<asrwt>0</asrwt>
<pdfrwt beam="1">  1       21 0.35237486E-02 0.28898417E+02</pdfrwt>
<pdfrwt beam="2">  1       21 0.73911867E-02 0.28898417E+02</pdfrwt>
<totfact> 0.50253024E+07</totfact>
</mgrwt>
</event>
<event>
 4    1  0.4353697E+006  0.3016714E+02  0.7546771E-02  0.1596248E+00
         21   -1    0    0  502  501  0.00000000000E+00  0.00000000000E+00  0.27619678470E+02  0.27619678470E+02  0.00000000000E+00 0.  1.
         21   -1    0    0  504  502 -0.00000000000E+00 -0.00000000000E+00 -0.37951276063E+02  0.37951276063E+02  0.00000000000E+00 0.  1.
         21    1    1    2  503  501 -0.82544475633E+01 -0.29015867984E+02  0.67364068084E+01  0.30910122551E+02  0.00000000000E+00 0.  1.
         21    1    1    2  504  503  0.82544475633E+01  0.29015867984E+02 -0.17068004402E+02  0.34660831982E+02  0.00000000000E+00 0.  1.
<mgrwt>
<rscale>  2 0.30167143E+02</rscale>
<asrwt>0</asrwt>
<pdfrwt beam="1">  1       21 0.42491813E-02 0.30167143E+02</pdfrwt>
<pdfrwt beam="2">  1       21 0.58386578E-02 0.30167143E+02</pdfrwt>
<totfact> 0.55353642E+07</totfact>
</mgrwt>
</event>
<event>
 4    1  0.4353697E+006  0.2241679E+02  0.7546771E-02  0.1701142E+00
         21   -1    0    0  503  501  0.00000000000E+00  0.00000000000E+00  0.33275100046E+01  0.33275100046E+01  0.00000000000E+00 0.  1.
         21   -1    0    0  501  502 -0.00000000000E+00 -0.00000000000E+00 -0.15233219980E+03  0.15233219980E+03  0.00000000000E+00 0.  1.
         21    1    1    2  503  504 -0.77944090178E+01 -0.21018076989E+02 -0.67272030173E+02  0.70908662488E+02  0.00000000000E+00 0.  1.
         21    1    1    2  504  502  0.77944090178E+01  0.21018076989E+02 -0.81732659620E+02  0.84751047314E+02  0.00000000000E+00 0.  1.
<mgrwt>
<rscale>  2 0.22416788E+02</rscale>
<asrwt>0</asrwt>
<pdfrwt beam="1">  1       21 0.51192455E-03 0.22416788E+02</pdfrwt>
<pdfrwt beam="2">  1       21 0.23435726E-01 0.22416788E+02</pdfrwt>
<totfact> 0.12537662E+08</totfact>
</mgrwt>
</event>
<event>
 4    1  0.4353697E+006  0.2072059E+02  0.7546771E-02  0.1731367E+00
         21   -1    0    0  503  501  0.00000000000E+00  0.00000000000E+00  0.24956744975E+02  0.24956744975E+02  0.00000000000E+00 0. -1.
         21   -1    0    0  504  502 -0.00000000000E+00 -0.00000000000E+00 -0.18164308753E+02  0.18164308753E+02  0.00000000000E+00 0.  1.
         21    1    1    2  503  502  0.16083782085E+00 -0.20719970014E+02  0.83549593905E+01  0.22341628691E+02  0.00000000000E+00 0. -1.
         21    1    1    2  504  501 -0.16083782085E+00  0.20719970014E+02 -0.15625231686E+01  0.20779425036E+02  0.00000000000E+00 0.  1.
<mgrwt>
<rscale>  2 0.20720594E+02</rscale>
<asrwt>0</asrwt>
<pdfrwt beam="1">  1       21 0.38394993E-02 0.20720594E+02</pdfrwt>
<pdfrwt beam="2">  1       21 0.27945090E-02 0.20720594E+02</pdfrwt>
<totfact> 0.18805142E+08</totfact>
</mgrwt>
</event>
<event>
 4    1  0.4353697E+006  0.2062144E+02  0.7546771E-02  0.1733245E+00
         21   -1    0    0  504  501  0.00000000000E+00  0.00000000000E+00  0.23919161754E+02  0.23919161754E+02  0.00000000000E+00 0.  1.
         21   -1    0    0  503  502 -0.00000000000E+00 -0.00000000000E+00 -0.18669509126E+02  0.18669509126E+02  0.00000000000E+00 0.  1.
         21    1    1    2  503  501  0.26748988652E+01  0.20447217520E+02 -0.20274936652E+01  0.20720871575E+02  0.00000000000E+00 0.  1.
         21    1    1    2  504  502 -0.26748988652E+01 -0.20447217520E+02  0.72771462930E+01  0.21867799305E+02  0.00000000000E+00 0.  1.
<mgrwt>
<rscale>  2 0.20621440E+02</rscale>
<asrwt>0</asrwt>
<pdfrwt beam="1">  1       21 0.36798710E-02 0.20621440E+02</pdfrwt>
<pdfrwt beam="2">  1       21 0.28722322E-02 0.20621440E+02</pdfrwt>
<totfact> 0.19232470E+08</totfact>
</mgrwt>
</event>
<event>
 4    1  0.4353697E+006  0.2031945E+02  0.7546771E-02  0.1739049E+00
         21   -1    0    0  504  501  0.00000000000E+00  0.00000000000E+00  0.12693001359E+01  0.12693001359E+01  0.00000000000E+00 0. -1.
         21   -1    0    0  503  502 -0.00000000000E+00 -0.00000000000E+00 -0.32600502413E+03  0.32600502413E+03  0.00000000000E+00 0. -1.
         21    1    1    2  503  501 -0.14216903552E+01 -0.20269653935E+02 -0.17007589945E+03  0.17128540991E+03  0.00000000000E+00 0. -1.
         21    1    1    2  504  502  0.14216903552E+01  0.20269653935E+02 -0.15465982454E+03  0.15598891435E+03  0.00000000000E+00 0. -1.
<mgrwt>
<rscale>  2 0.20319451E+02</rscale>
<asrwt>0</asrwt>
<pdfrwt beam="1">  1       21 0.19527700E-03 0.20319451E+02</pdfrwt>
<pdfrwt beam="2">  1       21 0.50154604E-01 0.20319451E+02</pdfrwt>
<totfact> 0.12182284E+08</totfact>
</mgrwt>
</event>
<event>
 4    1  0.4353697E+006  0.3528900E+02  0.7546771E-02  0.1546049E+00
         21   -1    0    0  504  501  0.00000000000E+00  0.00000000000E+00  0.47633351522E+02  0.47633351522E+02  0.00000000000E+00 0.  1.
         21   -1    0    0  503  502 -0.00000000000E+00 -0.00000000000E+00 -0.17926496490E+03  0.17926496490E+03  0.00000000000E+00 0. -1.
         21    1    1    2  503  501  0.30046580854E+02  0.18507207565E+02 -0.17066649141E+03  0.17427669105E+03  0.00000000000E+00 0. -1.
         21    1    1    2  504  502 -0.30046580854E+02 -0.18507207565E+02  0.39034878038E+02  0.52621625367E+02  0.00000000000E+00 0.  1.
<mgrwt>
<rscale>  2 0.35289003E+02</rscale>
<asrwt>0</asrwt>
<pdfrwt beam="1">  1       21 0.73282079E-02 0.35289003E+02</pdfrwt>
<pdfrwt beam="2">  1       21 0.27579225E-01 0.35289003E+02</pdfrwt>
<totfact> 0.16414189E+06</totfact>
</mgrwt>
</event>
<event>
 4    1  0.4353697E+006  0.2065851E+02  0.7546771E-02  0.1732541E+00
         21   -1    0    0  504  501  0.00000000000E+00  0.00000000000E+00  0.16764822613E+02  0.16764822613E+02  0.00000000000E+00 0. -1.
         21   -1    0    0  503  502 -0.00000000000E+00 -0.00000000000E+00 -0.25849752331E+02  0.25849752331E+02  0.00000000000E+00 0. -1.
         21    1    1    2  503  501 -0.16056909218E+02  0.12998065614E+02 -0.19144698154E+01  0.20747029619E+02  0.00000000000E+00 0. -1.
         21    1    1    2  504  502  0.16056909218E+02 -0.12998065614E+02 -0.71704599028E+01  0.21867545325E+02  0.00000000000E+00 0. -1.
<mgrwt>
<rscale>  2 0.20658510E+02</rscale>
<asrwt>0</asrwt>
<pdfrwt beam="1">  1       21 0.25792035E-02 0.20658510E+02</pdfrwt>
<pdfrwt beam="2">  1       21 0.39768850E-02 0.20658510E+02</pdfrwt>
<totfact> 0.20122973E+08</totfact>
</mgrwt>
</event>
<event>
 4    1  0.4353697E+006  0.2071283E+02  0.7546771E-02  0.1731513E+00
         21   -1    0    0  502  501  0.00000000000E+00  0.00000000000E+00  0.58822210886E+03  0.58822210886E+03  0.00000000000E+00 0.  1.
         21   -1    0    0  504  502 -0.00000000000E+00 -0.00000000000E+00 -0.32873158448E+01  0.32873158448E+01  0.00000000000E+00 0. -1.
         21    1    1    2  503  501 -0.18198202582E+02  0.98917583043E+01  0.55335778953E+03  0.55374530670E+03  0.00000000000E+00 0.  1.
         21    1    1    2  504  503  0.18198202582E+02 -0.98917583043E+01  0.31577003489E+02  0.37764118008E+02  0.00000000000E+00 0. -1.
<mgrwt>
<rscale>  2 0.20712833E+02</rscale>
<asrwt>0</asrwt>
<pdfrwt beam="1">  1       21 0.90495625E-01 0.20712833E+02</pdfrwt>
<pdfrwt beam="2">  1       21 0.50574137E-03 0.20712833E+02</pdfrwt>
<totfact> 0.92685734E+06</totfact>
</mgrwt>
</event>
<event>
 4    1  0.4353697E+006  0.2172140E+02  0.7546771E-02  0.1713115E+00
         21   -1    0    0  503  501  0.00000000000E+00  0.00000000000E+00  0.10159796126E+02  0.10159796126E+02  0.00000000000E+00 0. -1.
         21   -1    0    0  504  502 -0.00000000000E+00 -0.00000000000E+00 -0.14415074312E+03  0.14415074312E+03  0.00000000000E+00 0.  1.
         21    1    1    2  503  502 -0.13388170692E+02 -0.17104855781E+02 -0.34728119757E+01  0.21997264120E+02  0.00000000000E+00 0. -1.
         21    1    1    2  504  501  0.13388170692E+02  0.17104855781E+02 -0.13051813502E+03  0.13231327513E+03  0.00000000000E+00 0.  1.
<mgrwt>
<rscale>  2 0.21721400E+02</rscale>
<asrwt>0</asrwt>
<pdfrwt beam="1">  1       21 0.15630455E-02 0.21721400E+02</pdfrwt>
<pdfrwt beam="2">  1       21 0.22177038E-01 0.21721400E+02</pdfrwt>
<totfact> 0.25819912E+07</totfact>
</mgrwt>
</event>
<event>
 4    1  0.4353697E+006  0.2005742E+02  0.7546771E-02  0.1744189E+00
         21   -1    0    0  504  501  0.00000000000E+00  0.00000000000E+00  0.43671036299E+02  0.43671036299E+02  0.00000000000E+00 0. -1.
         21   -1    0    0  501  502 -0.00000000000E+00 -0.00000000000E+00 -0.49693327400E+02  0.49693327400E+02  0.00000000000E+00 0. -1.
         21    1    1    2  503  502 -0.15945906454E+02  0.12166681773E+02 -0.45144804316E+02  0.49399933550E+02  0.00000000000E+00 0. -1.
         21    1    1    2  504  503  0.15945906454E+02 -0.12166681773E+02  0.39122513216E+02  0.43964430149E+02  0.00000000000E+00 0. -1.
<mgrwt>
<rscale>  2 0.20057420E+02</rscale>
<asrwt>0</asrwt>
<pdfrwt beam="1">  1       21 0.67186210E-02 0.20057420E+02</pdfrwt>
<pdfrwt beam="2">  1       21 0.76451273E-02 0.20057420E+02</pdfrwt>
<totfact> 0.15652353E+07</totfact>
</mgrwt>
</event>
<event>
 4    1  0.4353697E+006  0.2508124E+02  0.7546771E-02  0.1659838E+00
         21   -1    0    0  503  501  0.00000000000E+00  0.00000000000E+00  0.38413686628E+03  0.38413686628E+03  0.00000000000E+00 0. -1.
         21   -1    0    0  504  502 -0.00000000000E+00 -0.00000000000E+00 -0.16398440101E+01  0.16398440101E+01  0.00000000000E+00 0. -1.
         21    1    1    2  503  502  0.22246973208E+02  0.11581919928E+02  0.18413864599E+03  0.18583893465E+03  0.00000000000E+00 0. -1.
         21    1    1    2  504  501 -0.22246973208E+02 -0.11581919928E+02  0.19835837628E+03  0.19993777563E+03  0.00000000000E+00 0. -1.
<mgrwt>
<rscale>  2 0.25081242E+02</rscale>
<asrwt>0</asrwt>
<pdfrwt beam="1">  1       21 0.59097908E-01 0.25081242E+02</pdfrwt>
<pdfrwt beam="2">  1       21 0.25228400E-03 0.25081242E+02</pdfrwt>
<totfact> 0.64256676E+07</totfact>
</mgrwt>
</event>
<event>
 4    1  0.4353697E+006  0.2133383E+02  0.7546771E-02  0.1720034E+00
         21   -1    0    0  503  501  0.00000000000E+00  0.00000000000E+00  0.16856097408E+01  0.16856097408E+01  0.00000000000E+00 0.  1.
         21   -1    0    0  504  502 -0.00000000000E+00 -0.00000000000E+00 -0.32430729036E+03  0.32430729036E+03  0.00000000000E+00 0.  1.
         21    1    1    2  503  502  0.19971568970E+02 -0.75012470463E+01 -0.22800487613E+03  0.22900077689E+03  0.00000000000E+00 0.  1.
         21    1    1    2  504  501 -0.19971568970E+02  0.75012470463E+01 -0.94616804489E+02  0.96992123217E+02  0.00000000000E+00 0.  1.
<mgrwt>
<rscale>  2 0.21333829E+02</rscale>
<asrwt>0</asrwt>
<pdfrwt beam="1">  1       21 0.25932460E-03 0.21333829E+02</pdfrwt>
<pdfrwt beam="2">  1       21 0.49893425E-01 0.21333829E+02</pdfrwt>
<totfact> 0.82808819E+07</totfact>
</mgrwt>
</event>
<event>
 4    1  0.4353697E+006  0.4476188E+02  0.7546771E-02  0.1475834E+00
         21   -1    0    0  504  501  0.00000000000E+00  0.00000000000E+00  0.11546394074E+03  0.11546394074E+03  0.00000000000E+00 0. -1.
         21   -1    0    0  501  502 -0.00000000000E+00 -0.00000000000E+00 -0.28800860771E+03  0.28800860771E+03  0.00000000000E+00 0.  1.
         21    1    1    2  503  502  0.38379153019E+02  0.23036196793E+02 -0.28183678569E+03  0.28536923366E+03  0.00000000000E+00 0.  1.
         21    1    1    2  504  503 -0.38379153019E+02 -0.23036196793E+02  0.10929211872E+03  0.11810331479E+03  0.00000000000E+00 0. -1.
<mgrwt>
<rscale>  2 0.44761878E+02</rscale>
<asrwt>0</asrwt>
<pdfrwt beam="1">  1       21 0.17763683E-01 0.44761878E+02</pdfrwt>
<pdfrwt beam="2">  1       21 0.44309016E-01 0.44761878E+02</pdfrwt>
<totfact> 0.14865065E+05</totfact>
</mgrwt>
</event>
<event>
 4    1  0.4353697E+006  0.3171654E+02  0.7546771E-02  0.1579854E+00
         21   -1    0    0  503  501  0.00000000000E+00  0.00000000000E+00  0.28769438974E+01  0.28769438974E+01  0.00000000000E+00 0.  1.
         21   -1    0    0  504  502 -0.00000000000E+00 -0.00000000000E+00 -0.95663422680E+03  0.95663422680E+03  0.00000000000E+00 0. -1.
         21    1    1    2  503  502  0.31083530661E+02  0.63050140252E+01 -0.94728663311E+02  0.99897240868E+02  0.00000000000E+00 0.  1.
         21    1    1    2  504  501 -0.31083530661E+02 -0.63050140252E+01 -0.85902861959E+03  0.85961392983E+03  0.00000000000E+00 0. -1.
<mgrwt>
<rscale>  2 0.31716543E+02</rscale>
<asrwt>0</asrwt>
<pdfrwt beam="1">  1       21 0.44260605E-03 0.31716543E+02</pdfrwt>
<pdfrwt beam="2">  1       21 0.14717473E+00 0.31716543E+02</pdfrwt>
<totfact> 0.39718232E+06</totfact>
</mgrwt>
</event>
<event>
 4    1  0.4353697E+006  0.2173845E+02  0.7546771E-02  0.1712815E+00
         21   -1    0    0  504  501  0.00000000000E+00  0.00000000000E+00  0.20656921614E+03  0.20656921614E+03  0.00000000000E+00 0.  1.
         21   -1    0    0  501  502 -0.00000000000E+00 -0.00000000000E+00 -0.28207835823E+01  0.28207835823E+01  0.00000000000E+00 0.  1.
         21    1    1    2  503  502  0.23597954779E+01 -0.21609983976E+02  0.14738928292E+03  0.14898376006E+03  0.00000000000E+00 0.  1.
         21    1    1    2  504  503 -0.23597954779E+01  0.21609983976E+02  0.56359149632E+02  0.60406239656E+02  0.00000000000E+00 0.  1.
<mgrwt>
<rscale>  2 0.21738446E+02</rscale>
<asrwt>0</asrwt>
<pdfrwt beam="1">  1       21 0.31779867E-01 0.21738446E+02</pdfrwt>
<pdfrwt beam="2">  1       21 0.43396687E-03 0.21738446E+02</pdfrwt>
<totfact> 0.91696874E+07</totfact>
</mgrwt>
</event>
<event>
 4    1  0.4353697E+006  0.2347514E+02  0.7546771E-02  0.1683922E+00
         21   -1    0    0  503  501  0.00000000000E+00  0.00000000000E+00  0.87767484219E+02  0.87767484219E+02  0.00000000000E+00 0.  1.
         21   -1    0    0  504  502 -0.00000000000E+00 -0.00000000000E+00 -0.44083958669E+02  0.44083958669E+02  0.00000000000E+00 0. -1.
         21    1    1    2  503  502  0.92132301015E+01  0.21591637394E+02  0.82892317037E+02  0.86152299087E+02  0.00000000000E+00 0.  1.
         21    1    1    2  504  501 -0.92132301015E+01 -0.21591637394E+02 -0.39208791488E+02  0.45699143801E+02  0.00000000000E+00 0. -1.
<mgrwt>
<rscale>  2 0.23475145E+02</rscale>
<asrwt>0</asrwt>
<pdfrwt beam="1">  1       21 0.13502690E-01 0.23475145E+02</pdfrwt>
<pdfrwt beam="2">  1       21 0.67821475E-02 0.23475145E+02</pdfrwt>
<totfact> 0.62128147E+06</totfact>
</mgrwt>
</event>
<event>
 4    1  0.4353697E+006  0.2612572E+02  0.7546771E-02  0.1645340E+00
         21   -1    0    0  503  501  0.00000000000E+00  0.00000000000E+00  0.18810640785E+01  0.18810640785E+01  0.00000000000E+00 0. -1.
         21   -1    0    0  504  502 -0.00000000000E+00 -0.00000000000E+00 -0.39590226350E+03  0.39590226350E+03  0.00000000000E+00 0. -1.
         21    1    1    2  503  502 -0.41869455314E+01 -0.25788030661E+02 -0.13954711293E+03  0.14197165128E+03  0.00000000000E+00 0. -1.
         21    1    1    2  504  501  0.41869455314E+01  0.25788030661E+02 -0.25447408648E+03  0.25581167630E+03  0.00000000000E+00 0. -1.
<mgrwt>
<rscale>  2 0.26125716E+02</rscale>
<asrwt>0</asrwt>
<pdfrwt beam="1">  1       21 0.28939492E-03 0.26125716E+02</pdfrwt>
<pdfrwt beam="2">  1       21 0.60907947E-01 0.26125716E+02</pdfrwt>
<totfact> 0.49951081E+07</totfact>
</mgrwt>
</event>
<event>
 4    1  0.4353697E+006  0.2411550E+02  0.7546771E-02  0.1674041E+00
         21   -1    0    0  504  501  0.00000000000E+00  0.00000000000E+00  0.80348297924E+02  0.80348297924E+02  0.00000000000E+00 0. -1.
         21   -1    0    0  503  502 -0.00000000000E+00 -0.00000000000E+00 -0.78701497386E+01  0.78701497386E+01  0.00000000000E+00 0.  1.
         21    1    1    2  503  501  0.10728610610E+02 -0.21597548761E+02  0.23737518142E+02  0.33838247082E+02  0.00000000000E+00 0.  1.
         21    1    1    2  504  502 -0.10728610610E+02  0.21597548761E+02  0.48740630044E+02  0.54380200580E+02  0.00000000000E+00 0. -1.
<mgrwt>
<rscale>  2 0.24115497E+02</rscale>
<asrwt>0</asrwt>
<pdfrwt beam="1">  1       21 0.12361276E-01 0.24115497E+02</pdfrwt>
<pdfrwt beam="2">  1       21 0.12107923E-02 0.24115497E+02</pdfrwt>
<totfact> 0.10655077E+08</totfact>
</mgrwt>
</event>
<event>
 4    1  0.4353697E+006  0.2125486E+02  0.7546771E-02  0.1721467E+00
         21   -1    0    0  503  501  0.00000000000E+00  0.00000000000E+00  0.52246551639E+02  0.52246551639E+02  0.00000000000E+00 0.  1.
         21   -1    0    0  501  502 -0.00000000000E+00 -0.00000000000E+00 -0.37832685562E+02  0.37832685562E+02  0.00000000000E+00 0.  1.
         21    1    1    2  503  504 -0.91454906966E+01 -0.19186694684E+02  0.46766089240E+02  0.51369605369E+02  0.00000000000E+00 0.  1.
         21    1    1    2  504  502  0.91454906966E+01  0.19186694684E+02 -0.32352223163E+02  0.38709631832E+02  0.00000000000E+00 0.  1.
<mgrwt>
<rscale>  2 0.21254864E+02</rscale>
<asrwt>0</asrwt>
<pdfrwt beam="1">  1       21 0.80379311E-02 0.21254864E+02</pdfrwt>
<pdfrwt beam="2">  1       21 0.58204131E-02 0.21254864E+02</pdfrwt>
<totfact> 0.18399796E+07</totfact>
</mgrwt>
</event>
<event>
 4    1  0.4353697E+006  0.2036778E+02  0.7546771E-02  0.1738112E+00
         21   -1    0    0  503  501  0.00000000000E+00  0.00000000000E+00  0.70665782259E+02  0.70665782259E+02  0.00000000000E+00 0.  1.
         21   -1    0    0  504  502 -0.00000000000E+00 -0.00000000000E+00 -0.24187117913E+02  0.24187117913E+02  0.00000000000E+00 0.  1.
         21    1    1    2  503  502 -0.27255719400E+01  0.20184591761E+02 -0.18032209817E+02  0.27203071110E+02  0.00000000000E+00 0.  1.
         21    1    1    2  504  501  0.27255719400E+01 -0.20184591761E+02  0.64510874162E+02  0.67649829062E+02  0.00000000000E+00 0.  1.
<mgrwt>
<rscale>  2 0.20367781E+02</rscale>
<asrwt>0</asrwt>
<pdfrwt beam="1">  1       21 0.10871659E-01 0.20367781E+02</pdfrwt>
<pdfrwt beam="2">  1       21 0.37210951E-02 0.20367781E+02</pdfrwt>
<totfact> 0.22516902E+07</totfact>
</mgrwt>
</event>
<event>
 4    1  0.4353697E+006  0.2118732E+02  0.7546771E-02  0.1722698E+00
         21   -1    0    0  504  501  0.00000000000E+00  0.00000000000E+00  0.73991388883E+01  0.73991388883E+01  0.00000000000E+00 0. -1.
         21   -1    0    0  503  502 -0.00000000000E+00 -0.00000000000E+00 -0.18616022256E+03  0.18616022256E+03  0.00000000000E+00 0.  1.
         21    1    1    2  503  501  0.14803060509E+02 -0.15158236055E+02 -0.16884014559E+03  0.17016432494E+03  0.00000000000E+00 0.  1.
         21    1    1    2  504  502 -0.14803060509E+02  0.15158236055E+02 -0.99209380866E+01  0.23395036509E+02  0.00000000000E+00 0. -1.
<mgrwt>
<rscale>  2 0.21187325E+02</rscale>
<asrwt>0</asrwt>
<pdfrwt beam="1">  1       21 0.11383291E-02 0.21187325E+02</pdfrwt>
<pdfrwt beam="2">  1       21 0.28640033E-01 0.21187325E+02</pdfrwt>
<totfact> 0.26295517E+07</totfact>
</mgrwt>
</event>
<event>
 4    1  0.4353697E+006  0.2511796E+02  0.7546771E-02  0.1659313E+00
         21   -1    0    0  503  501  0.00000000000E+00  0.00000000000E+00  0.52490133632E+01  0.52490133632E+01  0.00000000000E+00 0. -1.
         21   -1    0    0  504  502 -0.00000000000E+00 -0.00000000000E+00 -0.24879147955E+03  0.24879147955E+03  0.00000000000E+00 0. -1.
         21    1    1    2  503  502  0.19919879429E+02  0.15300670286E+02 -0.21309156993E+03  0.21456684106E+03  0.00000000000E+00 0. -1.
         21    1    1    2  504  501 -0.19919879429E+02 -0.15300670286E+02 -0.30450896253E+02  0.39473651849E+02  0.00000000000E+00 0. -1.
<mgrwt>
<rscale>  2 0.25117964E+02</rscale>
<asrwt>0</asrwt>
<pdfrwt beam="1">  1       21 0.80754054E-03 0.25117964E+02</pdfrwt>
<pdfrwt beam="2">  1       21 0.38275611E-01 0.25117964E+02</pdfrwt>
<totfact> 0.26792762E+07</totfact>
</mgrwt>
</event>
<event>
 4    1  0.4353697E+006  0.2685815E+02  0.7546771E-02  0.1635663E+00
         21   -1    0    0  503  501  0.00000000000E+00  0.00000000000E+00  0.85532463688E+02  0.85532463688E+02  0.00000000000E+00 0.  1.
         21   -1    0    0  504  502 -0.00000000000E+00 -0.00000000000E+00 -0.18461698004E+02  0.18461698004E+02  0.00000000000E+00 0.  1.
         21    1    1    2  503  502  0.14886946911E+02  0.22354838395E+02 -0.47866936374E+01  0.27281356711E+02  0.00000000000E+00 0.  1.
         21    1    1    2  504  501 -0.14886946911E+02 -0.22354838395E+02  0.71857459321E+02  0.76712804981E+02  0.00000000000E+00 0.  1.
<mgrwt>
<rscale>  2 0.26858146E+02</rscale>
<asrwt>0</asrwt>
<pdfrwt beam="1">  1       21 0.13158840E-01 0.26858146E+02</pdfrwt>
<pdfrwt beam="2">  1       21 0.28402613E-02 0.26858146E+02</pdfrwt>
<totfact> 0.26540299E+07</totfact>
</mgrwt>
</event>
<event>
 4    1  0.4353697E+006  0.2010948E+02  0.7546771E-02  0.1743160E+00
         21   -1    0    0  503  501  0.00000000000E+00  0.00000000000E+00  0.16588674661E+02  0.16588674661E+02  0.00000000000E+00 0.  1.
         21   -1    0    0  504  502 -0.00000000000E+00 -0.00000000000E+00 -0.31497025419E+02  0.31497025419E+02  0.00000000000E+00 0.  1.
         21    1    1    2  503  502  0.15076767391E+02  0.13307224344E+02 -0.18884942561E+02  0.27586811890E+02  0.00000000000E+00 0.  1.
         21    1    1    2  504  501 -0.15076767391E+02 -0.13307224344E+02  0.39765918031E+01  0.20498888191E+02  0.00000000000E+00 0.  1.
<mgrwt>
<rscale>  2 0.20109479E+02</rscale>
<asrwt>0</asrwt>
<pdfrwt beam="1">  1       21 0.25521038E-02 0.20109479E+02</pdfrwt>
<pdfrwt beam="2">  1       21 0.48456963E-02 0.20109479E+02</pdfrwt>
<totfact> 0.14854463E+08</totfact>
</mgrwt>
</event>
<event>
 4    1  0.4353697E+006  0.2375215E+02  0.7546771E-02  0.1679600E+00
         21   -1    0    0  502  501  0.00000000000E+00  0.00000000000E+00  0.35832240726E+03  0.35832240726E+03  0.00000000000E+00 0. -1.
         21   -1    0    0  504  502 -0.00000000000E+00 -0.00000000000E+00 -0.49607451976E+01  0.49607451976E+01  0.00000000000E+00 0. -1.
         21    1    1    2  503  501  0.27507946381E+01  0.23592328406E+02  0.32675414478E+03  0.32761629380E+03  0.00000000000E+00 0. -1.
         21    1    1    2  504  503 -0.27507946381E+01 -0.23592328406E+02  0.26607517282E+02  0.35666858660E+02  0.00000000000E+00 0. -1.
<mgrwt>
<rscale>  2 0.23752154E+02</rscale>
<asrwt>0</asrwt>
<pdfrwt beam="1">  1       21 0.55126503E-01 0.23752154E+02</pdfrwt>
<pdfrwt beam="2">  1       21 0.76319186E-03 0.23752154E+02</pdfrwt>
<totfact> 0.14280830E+07</totfact>
</mgrwt>
</event>
<event>
 4    1  0.4353697E+006  0.2371201E+02  0.7546771E-02  0.1680222E+00
         21   -1    0    0  504  501  0.00000000000E+00  0.00000000000E+00  0.58262815918E+02  0.58262815918E+02  0.00000000000E+00 0.  1.
         21   -1    0    0  503  502 -0.00000000000E+00 -0.00000000000E+00 -0.34726870161E+02  0.34726870161E+02  0.00000000000E+00 0.  1.
         21    1    1    2  503  501 -0.23183167594E+02  0.49799581193E+01 -0.27741860787E+02  0.36494795279E+02  0.00000000000E+00 0.  1.
         21    1    1    2  504  502  0.23183167594E+02 -0.49799581193E+01  0.51277806544E+02  0.56494890800E+02  0.00000000000E+00 0.  1.
<mgrwt>
<rscale>  2 0.23712006E+02</rscale>
<asrwt>0</asrwt>
<pdfrwt beam="1">  1       21 0.89635101E-02 0.23712006E+02</pdfrwt>
<pdfrwt beam="2">  1       21 0.53425954E-02 0.23712006E+02</pdfrwt>
<totfact> 0.18087584E+07</totfact>
</mgrwt>
</event>
<event>
 4    1  0.4353697E+006  0.2012112E+02  0.7546771E-02  0.1742930E+00
         21   -1    0    0  503  501  0.00000000000E+00  0.00000000000E+00  0.45840925964E+02  0.45840925964E+02  0.00000000000E+00 0. -1.
         21   -1    0    0  504  502 -0.00000000000E+00 -0.00000000000E+00 -0.14863673786E+02  0.14863673786E+02  0.00000000000E+00 0.  1.
         21    1    1    2  503  502  0.10125357734E+02 -0.17387832914E+02 -0.38467800744E+01  0.20485539281E+02  0.00000000000E+00 0.  1.
         21    1    1    2  504  501 -0.10125357734E+02  0.17387832914E+02  0.34824032252E+02  0.40219060469E+02  0.00000000000E+00 0. -1.
<mgrwt>
<rscale>  2 0.20121123E+02</rscale>
<asrwt>0</asrwt>
<pdfrwt beam="1">  1       21 0.70524501E-02 0.20121123E+02</pdfrwt>
<pdfrwt beam="2">  1       21 0.22867191E-02 0.20121123E+02</pdfrwt>
<totfact> 0.96640299E+07</totfact>
</mgrwt>
</event>
<event>
 4    1  0.4353697E+006  0.2267464E+02  0.7546771E-02  0.1696839E+00
         21   -1    0    0  503  501  0.00000000000E+00  0.00000000000E+00  0.14733095245E+03  0.14733095245E+03  0.00000000000E+00 0.  1.
         21   -1    0    0  504  502 -0.00000000000E+00 -0.00000000000E+00 -0.24313464321E+02  0.24313464321E+02  0.00000000000E+00 0.  1.
         21    1    1    2  503  502 -0.22637158301E+02 -0.13031863464E+01  0.14093351965E+03  0.14274591480E+03  0.00000000000E+00 0.  1.
         21    1    1    2  504  501  0.22637158301E+02  0.13031863464E+01 -0.17916031524E+02  0.28898501971E+02  0.00000000000E+00 0.  1.
<mgrwt>
<rscale>  2 0.22674638E+02</rscale>
<asrwt>0</asrwt>
<pdfrwt beam="1">  1       21 0.22666300E-01 0.22674638E+02</pdfrwt>
<pdfrwt beam="2">  1       21 0.37405331E-02 0.22674638E+02</pdfrwt>
<totfact> 0.65196326E+06</totfact>
</mgrwt>
</event>
<event>
 4    1  0.4353697E+006  0.2342740E+02  0.7546771E-02  0.1684674E+00
         21   -1    0    0  504  501  0.00000000000E+00  0.00000000000E+00  0.23218749450E+03  0.23218749450E+03  0.00000000000E+00 0. -1.
         21   -1    0    0  503  502 -0.00000000000E+00 -0.00000000000E+00 -0.39157415358E+01  0.39157415358E+01  0.00000000000E+00 0. -1.
         21    1    1    2  503  501 -0.63572494257E+01  0.22548359945E+02  0.39816235435E+02  0.46197140178E+02  0.00000000000E+00 0. -1.
         21    1    1    2  504  502  0.63572494257E+01 -0.22548359945E+02  0.18845551753E+03  0.18990609586E+03  0.00000000000E+00 0. -1.
<mgrwt>
<rscale>  2 0.23427402E+02</rscale>
<asrwt>0</asrwt>
<pdfrwt beam="1">  1       21 0.35721142E-01 0.23427402E+02</pdfrwt>
<pdfrwt beam="2">  1       21 0.60242195E-03 0.23427402E+02</pdfrwt>
<totfact> 0.46452621E+07</totfact>
</mgrwt>
</event>
<event>
 4    1  0.4353697E+006  0.2091541E+02  0.7546771E-02  0.1727714E+00
         21   -1    0    0  503  501  0.00000000000E+00  0.00000000000E+00  0.76371629347E+02  0.76371629347E+02  0.00000000000E+00 0.  1.
         21   -1    0    0  501  502 -0.00000000000E+00 -0.00000000000E+00 -0.73868402178E+01  0.73868402178E+01  0.00000000000E+00 0.  1.
         21    1    1    2  503  504 -0.18758423800E+02  0.92507185582E+01  0.54338524837E+02  0.58224818925E+02  0.00000000000E+00 0.  1.
         21    1    1    2  504  502  0.18758423800E+02 -0.92507185582E+01  0.14646264292E+02  0.25533650640E+02  0.00000000000E+00 0.  1.
<mgrwt>
<rscale>  2 0.20915407E+02</rscale>
<asrwt>0</asrwt>
<pdfrwt beam="1">  1       21 0.11749481E-01 0.20915407E+02</pdfrwt>
<pdfrwt beam="2">  1       21 0.11364370E-02 0.20915407E+02</pdfrwt>
<totfact> 0.12247250E+08</totfact>
</mgrwt>
</event>
<event>
 4    1  0.4353697E+006  0.3729663E+02  0.7546771E-02  0.1529103E+00
         21   -1    0    0  502  501  0.00000000000E+00  0.00000000000E+00  0.18642301688E+04  0.18642301688E+04  0.00000000000E+00 0.  1.
         21   -1    0    0  503  502 -0.00000000000E+00 -0.00000000000E+00 -0.13282077168E+01  0.13282077168E+01  0.00000000000E+00 0.  1.
         21    1    1    2  503  504  0.26425421104E+02  0.26319867760E+02  0.31397470947E+03  0.31618215716E+03  0.00000000000E+00 0.  1.
         21    1    1    2  504  501 -0.26425421104E+02 -0.26319867760E+02  0.15489272516E+04  0.15493762193E+04  0.00000000000E+00 0.  1.
<mgrwt>
<rscale>  2 0.37296626E+02</rscale>
<asrwt>0</asrwt>
<pdfrwt beam="1">  1       21 0.28680255E+00 0.37296626E+02</pdfrwt>
<pdfrwt beam="2">  1       21 0.20434114E-03 0.37296626E+02</pdfrwt>
<totfact> 0.19974163E+06</totfact>
</mgrwt>
</event>
<event>
 4    1  0.4353697E+006  0.2304466E+02  0.7546771E-02  0.1690787E+00
         21   -1    0    0  502  501  0.00000000000E+00  0.00000000000E+00  0.69624945178E+02  0.69624945178E+02  0.00000000000E+00 0.  1.
         21   -1    0    0  504  502 -0.00000000000E+00 -0.00000000000E+00 -0.17725054703E+03  0.17725054703E+03  0.00000000000E+00 0. -1.
         21    1    1    2  503  501  0.87712213857E+01  0.21310136816E+02  0.66939876385E+02  0.70795503431E+02  0.00000000000E+00 0.  1.
         21    1    1    2  504  503 -0.87712213857E+01 -0.21310136816E+02 -0.17456547824E+03  0.17607998878E+03  0.00000000000E+00 0. -1.
<mgrwt>
<rscale>  2 0.23044658E+02</rscale>
<asrwt>0</asrwt>
<pdfrwt beam="1">  1       21 0.10711530E-01 0.23044658E+02</pdfrwt>
<pdfrwt beam="2">  1       21 0.27269314E-01 0.23044658E+02</pdfrwt>
<totfact> 0.86188401E+05</totfact>
</mgrwt>
</event>
<event>
 4    1  0.4353697E+006  0.7272280E+02  0.7546771E-02  0.1351071E+00
         21   -1    0    0  503  501  0.00000000000E+00  0.00000000000E+00  0.44657986027E+01  0.44657986027E+01  0.00000000000E+00 0. -1.
         21   -1    0    0  504  502 -0.00000000000E+00 -0.00000000000E+00 -0.11856590538E+04  0.11856590538E+04  0.00000000000E+00 0.  1.
         21    1    1    2  503  502 -0.54355326080E+01  0.72519384980E+02 -0.57005710434E+03  0.57467704706E+03  0.00000000000E+00 0.  1.
         21    1    1    2  504  501  0.54355326080E+01 -0.72519384980E+02 -0.61113615084E+03  0.61544780532E+03  0.00000000000E+00 0. -1.
<mgrwt>
<rscale>  2 0.72722804E+02</rscale>
<asrwt>0</asrwt>
<pdfrwt beam="1">  1       21 0.68704688E-03 0.72722804E+02</pdfrwt>
<pdfrwt beam="2">  1       21 0.18240884E+00 0.72722804E+02</pdfrwt>
<totfact> 0.12198352E+06</totfact>
</mgrwt>
</event>
<event>
 4    1  0.4353697E+006  0.2065966E+02  0.7546771E-02  0.1732519E+00
         21   -1    0    0  504  501  0.00000000000E+00  0.00000000000E+00  0.33643662545E+02  0.33643662545E+02  0.00000000000E+00 0.  1.
         21   -1    0    0  501  502 -0.00000000000E+00 -0.00000000000E+00 -0.45027045432E+02  0.45027045432E+02  0.00000000000E+00 0. -1.
         21    1    1    2  503  502 -0.12212465461E+02 -0.16663645367E+02 -0.39028175621E+02  0.44159029449E+02  0.00000000000E+00 0. -1.
         21    1    1    2  504  503  0.12212465461E+02  0.16663645367E+02  0.27644792734E+02  0.34511678529E+02  0.00000000000E+00 0.  1.
<mgrwt>
<rscale>  2 0.20659656E+02</rscale>
<asrwt>0</asrwt>
<pdfrwt beam="1">  1       21 0.51759481E-02 0.20659656E+02</pdfrwt>
<pdfrwt beam="2">  1       21 0.69272377E-02 0.20659656E+02</pdfrwt>
<totfact> 0.28034171E+07</totfact>
</mgrwt>
</event>
<event>
 4    1  0.4353697E+006  0.2200084E+02  0.7546771E-02  0.1708238E+00
         21   -1    0    0  503  501  0.00000000000E+00  0.00000000000E+00  0.10020593349E+04  0.10020593349E+04  0.00000000000E+00 0.  1.
         21   -1    0    0  504  502 -0.00000000000E+00 -0.00000000000E+00 -0.87779130807E+00  0.87779130807E+00  0.00000000000E+00 0. -1.
         21    1    1    2  503  502 -0.21879877799E+02  0.23038599905E+01  0.16430482388E+03  0.16577126401E+03  0.00000000000E+00 0. -1.
         21    1    1    2  504  501  0.21879877799E+02 -0.23038599905E+01  0.83687671971E+03  0.83716586219E+03  0.00000000000E+00 0.  1.
<mgrwt>
<rscale>  2 0.22000837E+02</rscale>
<asrwt>0</asrwt>
<pdfrwt beam="1">  1       21 0.15416206E+00 0.22000837E+02</pdfrwt>
<pdfrwt beam="2">  1       21 0.13504562E-03 0.22000837E+02</pdfrwt>
<totfact> 0.19133972E+07</totfact>
</mgrwt>
</event>
<event>
 4    1  0.4353697E+006  0.3565281E+02  0.7546771E-02  0.1542879E+00
         21   -1    0    0  503  501  0.00000000000E+00  0.00000000000E+00  0.55700140739E+01  0.55700140739E+01  0.00000000000E+00 0. -1.
         21   -1    0    0  504  502 -0.00000000000E+00 -0.00000000000E+00 -0.26394266741E+04  0.26394266741E+04  0.00000000000E+00 0. -1.
         21    1    1    2  503  502 -0.29904796133E+02 -0.19412003415E+02 -0.52894724218E+02  0.63788514314E+02  0.00000000000E+00 0. -1.
         21    1    1    2  504  501  0.29904796133E+02  0.19412003415E+02 -0.25809619358E+04  0.25812081739E+04  0.00000000000E+00 0. -1.
<mgrwt>
<rscale>  2 0.35652808E+02</rscale>
<asrwt>0</asrwt>
<pdfrwt beam="1">  1       21 0.85692536E-03 0.35652808E+02</pdfrwt>
<pdfrwt beam="2">  1       21 0.40606559E+00 0.35652808E+02</pdfrwt>
<totfact> 0.55560692E+04</totfact>
</mgrwt>
</event>
<event>
 4    1  0.4353697E+006  0.3020617E+02  0.7546771E-02  0.1595821E+00
         21   -1    0    0  504  501  0.00000000000E+00  0.00000000000E+00  0.21349637113E+03  0.21349637113E+03  0.00000000000E+00 0.  1.
         21   -1    0    0  503  502 -0.00000000000E+00 -0.00000000000E+00 -0.17605374697E+02  0.17605374697E+02  0.00000000000E+00 0.  1.
         21    1    1    2  503  501  0.29911963056E+02  0.42055861411E+01 -0.26071420893E+01  0.30318470913E+02  0.00000000000E+00 0.  1.
         21    1    1    2  504  502 -0.29911963056E+02 -0.42055861411E+01  0.19849813852E+03  0.20078327491E+03  0.00000000000E+00 0.  1.
<mgrwt>
<rscale>  2 0.30206166E+02</rscale>
<asrwt>0</asrwt>
<pdfrwt beam="1">  1       21 0.32845594E-01 0.30206166E+02</pdfrwt>
<pdfrwt beam="2">  1       21 0.27085193E-02 0.30206166E+02</pdfrwt>
<totfact> 0.57784220E+06</totfact>
</mgrwt>
</event>
<event>
 4    1  0.4353697E+006  0.2427286E+02  0.7546771E-02  0.1671671E+00
         21   -1    0    0  504  501  0.00000000000E+00  0.00000000000E+00  0.18345216079E+02  0.18345216079E+02  0.00000000000E+00 0. -1.
         21   -1    0    0  501  502 -0.00000000000E+00 -0.00000000000E+00 -0.69293620259E+02  0.69293620259E+02  0.00000000000E+00 0. -1.
         21    1    1    2  503  502  0.19782298820E-01 -0.24272851983E+02 -0.57571006900E+02  0.62478736945E+02  0.00000000000E+00 0. -1.
         21    1    1    2  504  503 -0.19782298820E-01  0.24272851983E+02  0.66226027199E+01  0.25160099394E+02  0.00000000000E+00 0. -1.
<mgrwt>
<rscale>  2 0.24272860E+02</rscale>
<asrwt>0</asrwt>
<pdfrwt beam="1">  1       21 0.28223410E-02 0.24272860E+02</pdfrwt>
<pdfrwt beam="2">  1       21 0.10660557E-01 0.24272860E+02</pdfrwt>
<totfact> 0.37338643E+07</totfact>
</mgrwt>
</event>
<event>
 4    1  0.4353697E+006  0.3156083E+02  0.7546771E-02  0.1581450E+00
         21   -1    0    0  504  501  0.00000000000E+00  0.00000000000E+00  0.96341591396E+00  0.96341591396E+00  0.00000000000E+00 0.  1.
         21   -1    0    0  503  502 -0.00000000000E+00 -0.00000000000E+00 -0.10508993316E+04  0.10508993316E+04  0.00000000000E+00 0.  1.
         21    1    1    2  503  501 -0.14511133975E+02  0.28027004757E+02 -0.59183743805E+03  0.59267836056E+03  0.00000000000E+00 0.  1.
         21    1    1    2  504  502  0.14511133975E+02 -0.28027004757E+02 -0.45809847767E+03  0.45918438698E+03  0.00000000000E+00 0.  1.
<mgrwt>
<rscale>  2 0.31560830E+02</rscale>
<asrwt>0</asrwt>
<pdfrwt beam="1">  1       21 0.14821743E-03 0.31560830E+02</pdfrwt>
<pdfrwt beam="2">  1       21 0.16167726E+00 0.31560830E+02</pdfrwt>
<totfact> 0.15715197E+07</totfact>
</mgrwt>
</event>
<event>
 4    1  0.4353697E+006  0.2045665E+02  0.7546771E-02  0.1736397E+00
         21   -1    0    0  502  501  0.00000000000E+00  0.00000000000E+00  0.26600166257E+02  0.26600166257E+02  0.00000000000E+00 0. -1.
         21   -1    0    0  504  502 -0.00000000000E+00 -0.00000000000E+00 -0.12120449581E+03  0.12120449581E+03  0.00000000000E+00 0. -1.
         21    1    1    2  503  501 -0.76467007511E+01 -0.18973731380E+02  0.21637367063E+02  0.29776671544E+02  0.00000000000E+00 0. -1.
         21    1    1    2  504  503  0.76467007511E+01  0.18973731380E+02 -0.11624169662E+03  0.11802799052E+03  0.00000000000E+00 0. -1.
<mgrwt>
<rscale>  2 0.20456650E+02</rscale>
<asrwt>0</asrwt>
<pdfrwt beam="1">  1       21 0.40923332E-02 0.20456650E+02</pdfrwt>
<pdfrwt beam="2">  1       21 0.18646846E-01 0.20456650E+02</pdfrwt>
<totfact> 0.78114116E+06</totfact>
</mgrwt>
</event>
<event>
 4    1  0.4353697E+006  0.2008055E+02  0.7546771E-02  0.1743731E+00
         21   -1    0    0  503  501  0.00000000000E+00  0.00000000000E+00  0.62087759650E+02  0.62087759650E+02  0.00000000000E+00 0.  1.
         21   -1    0    0  504  502 -0.00000000000E+00 -0.00000000000E+00 -0.14797518325E+02  0.14797518325E+02  0.00000000000E+00 0.  1.
         21    1    1    2  503  502  0.56703440547E+01 -0.19263320321E+02 -0.51512012101E+01  0.20730730460E+02  0.00000000000E+00 0.  1.
         21    1    1    2  504  501 -0.56703440547E+01  0.19263320321E+02  0.52441442535E+02  0.56154547516E+02  0.00000000000E+00 0.  1.
<mgrwt>
<rscale>  2 0.20080546E+02</rscale>
<asrwt>0</asrwt>
<pdfrwt beam="1">  1       21 0.95519628E-02 0.20080546E+02</pdfrwt>
<pdfrwt beam="2">  1       21 0.22765413E-02 0.20080546E+02</pdfrwt>
<totfact> 0.59395719E+07</totfact>
</mgrwt>
</event>
<event>
 4    1  0.4353697E+006  0.3224230E+02  0.7546771E-02  0.1574548E+00
         21   -1    0    0  503  501  0.00000000000E+00  0.00000000000E+00  0.13044770609E+03  0.13044770609E+03  0.00000000000E+00 0.  1.
         21   -1    0    0  504  502 -0.00000000000E+00 -0.00000000000E+00 -0.15158127031E+03  0.15158127031E+03  0.00000000000E+00 0.  1.
         21    1    1    2  503  502  0.40516850780E+01 -0.31986714661E+02  0.12669082088E+03  0.13072922459E+03  0.00000000000E+00 0.  1.
         21    1    1    2  504  501 -0.40516850780E+01  0.31986714661E+02 -0.14782438510E+03  0.15129975181E+03  0.00000000000E+00 0.  1.
<mgrwt>
<rscale>  2 0.32242302E+02</rscale>
<asrwt>0</asrwt>
<pdfrwt beam="1">  1       21 0.20068878E-01 0.32242302E+02</pdfrwt>
<pdfrwt beam="2">  1       21 0.23320195E-01 0.32242302E+02</pdfrwt>
<totfact> 0.39752524E+05</totfact>
</mgrwt>
</event>
<event>
 4    1  0.4353697E+006  0.2362371E+02  0.7546771E-02  0.1681595E+00
         21   -1    0    0  503  501  0.00000000000E+00  0.00000000000E+00  0.23090480687E+03  0.23090480687E+03  0.00000000000E+00 0.  1.
         21   -1    0    0  504  502 -0.00000000000E+00 -0.00000000000E+00 -0.11795850337E+02  0.11795850337E+02  0.00000000000E+00 0. -1.
         21    1    1    2  503  502  0.92284273603E+01 -0.21746630218E+02  0.13481029407E+01  0.23662146541E+02  0.00000000000E+00 0. -1.
         21    1    1    2  504  501 -0.92284273603E+01  0.21746630218E+02  0.21776085359E+03  0.21903851066E+03  0.00000000000E+00 0.  1.
<mgrwt>
<rscale>  2 0.23623713E+02</rscale>
<asrwt>0</asrwt>
<pdfrwt beam="1">  1       21 0.35523813E-01 0.23623713E+02</pdfrwt>
<pdfrwt beam="2">  1       21 0.18147464E-02 0.23623713E+02</pdfrwt>
<totfact> 0.89368933E+06</totfact>
</mgrwt>
</event>
<event>
 4    1  0.4353697E+006  0.2020039E+02  0.7546771E-02  0.1741372E+00
         21   -1    0    0  503  501  0.00000000000E+00  0.00000000000E+00  0.45986521344E+02  0.45986521344E+02  0.00000000000E+00 0.  1.
         21   -1    0    0  501  502 -0.00000000000E+00 -0.00000000000E+00 -0.19469025407E+03  0.19469025407E+03  0.00000000000E+00 0. -1.
         21    1    1    2  503  504  0.14775177472E+02 -0.13774966608E+02  0.43212217861E+02  0.47700643045E+02  0.00000000000E+00 0.  1.
         21    1    1    2  504  502 -0.14775177472E+02  0.13774966608E+02 -0.19191595059E+03  0.19297613237E+03  0.00000000000E+00 0. -1.
<mgrwt>
<rscale>  2 0.20200386E+02</rscale>
<asrwt>0</asrwt>
<pdfrwt beam="1">  1       21 0.70748495E-02 0.20200386E+02</pdfrwt>
<pdfrwt beam="2">  1       21 0.29952346E-01 0.20200386E+02</pdfrwt>
<totfact> 0.14148779E+06</totfact>
</mgrwt>
</event>
<event>
 4    1  0.4353697E+006  0.2208497E+02  0.7546771E-02  0.1706787E+00
         21   -1    0    0  503  501  0.00000000000E+00  0.00000000000E+00  0.48202694733E+01  0.48202694733E+01  0.00000000000E+00 0.  1.
         21   -1    0    0  504  502 -0.00000000000E+00 -0.00000000000E+00 -0.10569025050E+03  0.10569025050E+03  0.00000000000E+00 0.  1.
         21    1    1    2  503  502  0.83098273144E+01 -0.20461979645E+02 -0.61841345572E+02  0.65666565793E+02  0.00000000000E+00 0.  1.
         21    1    1    2  504  501 -0.83098273144E+01  0.20461979645E+02 -0.39028635450E+02  0.44843954175E+02  0.00000000000E+00 0.  1.
<mgrwt>
<rscale>  2 0.22084969E+02</rscale>
<asrwt>0</asrwt>
<pdfrwt beam="1">  1       21 0.74157999E-03 0.22084969E+02</pdfrwt>
<pdfrwt beam="2">  1       21 0.16260037E-01 0.22084969E+02</pdfrwt>
<totfact> 0.13616004E+08</totfact>
</mgrwt>
</event>
<event>
 4    1  0.4353697E+006  0.2758116E+02  0.7546771E-02  0.1626476E+00
         21   -1    0    0  504  501  0.00000000000E+00  0.00000000000E+00  0.51393941262E+01  0.51393941262E+01  0.00000000000E+00 0.  1.
         21   -1    0    0  503  502 -0.00000000000E+00 -0.00000000000E+00 -0.66153018323E+03  0.66153018323E+03  0.00000000000E+00 0. -1.
         21    1    1    2  503  501 -0.21351781411E+02 -0.17459140599E+02 -0.34510637822E+02  0.44178097320E+02  0.00000000000E+00 0.  1.
         21    1    1    2  504  502  0.21351781411E+02  0.17459140599E+02 -0.62188015128E+03  0.62249148003E+03  0.00000000000E+00 0. -1.
<mgrwt>
<rscale>  2 0.27581156E+02</rscale>
<asrwt>0</asrwt>
<pdfrwt beam="1">  1       21 0.79067547E-03 0.27581156E+02</pdfrwt>
<pdfrwt beam="2">  1       21 0.10177394E+00 0.27581156E+02</pdfrwt>
<totfact> 0.38528258E+06</totfact>
</mgrwt>
</event>
<event>
 4    1  0.4353697E+006  0.3328312E+02  0.7546771E-02  0.1564398E+00
         21   -1    0    0  504  501  0.00000000000E+00  0.00000000000E+00  0.12270747252E+02  0.12270747252E+02  0.00000000000E+00 0.  1.
         21   -1    0    0  503  502 -0.00000000000E+00 -0.00000000000E+00 -0.15047716603E+03  0.15047716603E+03  0.00000000000E+00 0.  1.
         21    1    1    2  503  501 -0.15628654830E+02 -0.29385562238E+02 -0.12057259856E+03  0.12508204365E+03  0.00000000000E+00 0.  1.
         21    1    1    2  504  502  0.15628654830E+02  0.29385562238E+02 -0.17633820220E+02  0.37665869636E+02  0.00000000000E+00 0.  1.
<mgrwt>
<rscale>  2 0.33283121E+02</rscale>
<asrwt>0</asrwt>
<pdfrwt beam="1">  1       21 0.18878072E-02 0.33283121E+02</pdfrwt>
<pdfrwt beam="2">  1       21 0.23150335E-01 0.33283121E+02</pdfrwt>
<totfact> 0.19502325E+07</totfact>
</mgrwt>
</event>
<event>
 4    1  0.4353697E+006  0.2089012E+02  0.7546771E-02  0.1728185E+00
         21   -1    0    0  504  501  0.00000000000E+00  0.00000000000E+00  0.19542088159E+04  0.19542088159E+04  0.00000000000E+00 0.  1.
         21   -1    0    0  503  502 -0.00000000000E+00 -0.00000000000E+00 -0.23519190317E+00  0.23519190317E+00  0.00000000000E+00 0. -1.
         21    1    1    2  503  501 -0.78194553208E+01  0.19371453087E+02  0.11966209051E+04  0.11968032368E+04  0.00000000000E+00 0.  1.
         21    1    1    2  504  502  0.78194553208E+01 -0.19371453087E+02  0.75735271893E+03  0.75764077104E+03  0.00000000000E+00 0. -1.
<mgrwt>
<rscale>  2 0.20890119E+02</rscale>
<asrwt>0</asrwt>
<pdfrwt beam="1">  1       21 0.30063451E+00 0.20890119E+02</pdfrwt>
<pdfrwt beam="2">  1       21 0.36184935E-04 0.20890119E+02</pdfrwt>
<totfact> 0.20170519E+07</totfact>
</mgrwt>
</event>
<event>
 4    1  0.4353697E+006  0.2799326E+02  0.7546771E-02  0.1621392E+00
         21   -1    0    0  504  501  0.00000000000E+00  0.00000000000E+00  0.23547431550E+01  0.23547431550E+01  0.00000000000E+00 0.  1.
         21   -1    0    0  501  502 -0.00000000000E+00 -0.00000000000E+00 -0.44391816870E+03  0.44391816870E+03  0.00000000000E+00 0.  1.
         21    1    1    2  503  502  0.13939345857E+02 -0.24275855521E+02 -0.33242727908E+03  0.33360383451E+03  0.00000000000E+00 0.  1.
         21    1    1    2  504  503 -0.13939345857E+02  0.24275855521E+02 -0.10913614647E+03  0.11266907734E+03  0.00000000000E+00 0.  1.
<mgrwt>
<rscale>  2 0.27993259E+02</rscale>
<asrwt>0</asrwt>
<pdfrwt beam="1">  1       21 0.36226839E-03 0.27993259E+02</pdfrwt>
<pdfrwt beam="2">  1       21 0.68295062E-01 0.27993259E+02</pdfrwt>
<totfact> 0.28850750E+07</totfact>
</mgrwt>
</event>
<event>
 4    1  0.4353697E+006  0.2580677E+02  0.7546771E-02  0.1649677E+00
         21   -1    0    0  504  501  0.00000000000E+00  0.00000000000E+00  0.70021646503E+02  0.70021646503E+02  0.00000000000E+00 0. -1.
         21   -1    0    0  501  502 -0.00000000000E+00 -0.00000000000E+00 -0.85543376231E+02  0.85543376231E+02  0.00000000000E+00 0.  1.
         21    1    1    2  503  502  0.24617200391E+02  0.77448513259E+01 -0.81091847232E+02  0.85099218355E+02  0.00000000000E+00 0.  1.
         21    1    1    2  504  503 -0.24617200391E+02 -0.77448513259E+01  0.65570117504E+02  0.70465804378E+02  0.00000000000E+00 0. -1.
<mgrwt>
<rscale>  2 0.25806768E+02</rscale>
<asrwt>0</asrwt>
<pdfrwt beam="1">  1       21 0.10772561E-01 0.25806768E+02</pdfrwt>
<pdfrwt beam="2">  1       21 0.13160519E-01 0.25806768E+02</pdfrwt>
<totfact> 0.30771933E+06</totfact>
</mgrwt>
</event>
<event>
 4    1  0.4353697E+006  0.2605042E+02  0.7546771E-02  0.1646357E+00
         21   -1    0    0  504  501  0.00000000000E+00  0.00000000000E+00  0.29453577004E+01  0.29453577004E+01  0.00000000000E+00 0. -1.
         21   -1    0    0  503  502 -0.00000000000E+00 -0.00000000000E+00 -0.25043731294E+03  0.25043731294E+03  0.00000000000E+00 0. -1.
         21    1    1    2  503  501  0.20960380308E+02 -0.15468890924E+02 -0.15957761612E+03  0.16168994927E+03  0.00000000000E+00 0. -1.
         21    1    1    2  504  502 -0.20960380308E+02  0.15468890924E+02 -0.87914339122E+02  0.91692721370E+02  0.00000000000E+00 0. -1.
<mgrwt>
<rscale>  2 0.26050415E+02</rscale>
<asrwt>0</asrwt>
<pdfrwt beam="1">  1       21 0.45313182E-03 0.26050415E+02</pdfrwt>
<pdfrwt beam="2">  1       21 0.38528829E-01 0.26050415E+02</pdfrwt>
<totfact> 0.62991635E+07</totfact>
</mgrwt>
</event>
<event>
 4    1  0.4353697E+006  0.2860690E+02  0.7546771E-02  0.1614018E+00
         21   -1    0    0  504  501  0.00000000000E+00  0.00000000000E+00  0.13768313442E+02  0.13768313442E+02  0.00000000000E+00 0.  1.
         21   -1    0    0  503  502 -0.00000000000E+00 -0.00000000000E+00 -0.13815210092E+04  0.13815210092E+04  0.00000000000E+00 0. -1.
         21    1    1    2  503  501 -0.23699859198E+02 -0.16020964999E+02 -0.14041465892E+01  0.28641338537E+02  0.00000000000E+00 0.  1.
         21    1    1    2  504  502  0.23699859198E+02  0.16020964999E+02 -0.13663485491E+04  0.13666479841E+04  0.00000000000E+00 0. -1.
<mgrwt>
<rscale>  2 0.28606899E+02</rscale>
<asrwt>0</asrwt>
<pdfrwt beam="1">  1       21 0.21182017E-02 0.28606899E+02</pdfrwt>
<pdfrwt beam="2">  1       21 0.21254173E+00 0.28606899E+02</pdfrwt>
<totfact> 0.14573279E+05</totfact>
</mgrwt>
</event>
<event>
 4    1  0.4353697E+006  0.2517830E+02  0.7546771E-02  0.1658454E+00
         21   -1    0    0  503  501  0.00000000000E+00  0.00000000000E+00  0.20464285594E+03  0.20464285594E+03  0.00000000000E+00 0.  1.
         21   -1    0    0  504  502 -0.00000000000E+00 -0.00000000000E+00 -0.73281296164E+01  0.73281296164E+01  0.00000000000E+00 0. -1.
         21    1    1    2  503  502 -0.25123046223E+02 -0.16671754691E+01  0.18131408735E+02  0.31027325187E+02  0.00000000000E+00 0. -1.
         21    1    1    2  504  501  0.25123046223E+02  0.16671754691E+01  0.17918331758E+03  0.18094366036E+03  0.00000000000E+00 0.  1.
<mgrwt>
<rscale>  2 0.25178303E+02</rscale>
<asrwt>0</asrwt>
<pdfrwt beam="1">  1       21 0.31483512E-01 0.25178303E+02</pdfrwt>
<pdfrwt beam="2">  1       21 0.11274047E-02 0.25178303E+02</pdfrwt>
<totfact> 0.23322928E+07</totfact>
</mgrwt>
</event>
<event>
 4    1  0.4353697E+006  0.2768474E+02  0.7546771E-02  0.1625188E+00
         21   -1    0    0  504  501  0.00000000000E+00  0.00000000000E+00  0.20391616303E+03  0.20391616303E+03  0.00000000000E+00 0.  1.
         21   -1    0    0  503  502 -0.00000000000E+00 -0.00000000000E+00 -0.47365796134E+01  0.47365796134E+01  0.00000000000E+00 0. -1.
         21    1    1    2  503  501  0.51987072557E+01  0.27192243153E+02  0.52185162733E+02  0.59073986274E+02  0.00000000000E+00 0. -1.
         21    1    1    2  504  502 -0.51987072557E+01 -0.27192243153E+02  0.14699442068E+03  0.14957875637E+03  0.00000000000E+00 0.  1.
<mgrwt>
<rscale>  2 0.27684737E+02</rscale>
<asrwt>0</asrwt>
<pdfrwt beam="1">  1       21 0.31371711E-01 0.27684737E+02</pdfrwt>
<pdfrwt beam="2">  1       21 0.72870471E-03 0.27684737E+02</pdfrwt>
<totfact> 0.46184743E+07</totfact>
</mgrwt>
</event>
<event>
 4    1  0.4353697E+006  0.2442480E+02  0.7546771E-02  0.1669404E+00
         21   -1    0    0  504  501  0.00000000000E+00  0.00000000000E+00  0.19083416113E+02  0.19083416113E+02  0.00000000000E+00 0. -1.
         21   -1    0    0  503  502 -0.00000000000E+00 -0.00000000000E+00 -0.38772768229E+02  0.38772768229E+02  0.00000000000E+00 0.  1.
         21    1    1    2  503  501 -0.21482574543E+02 -0.11621961622E+02 -0.22577388143E+02  0.33261230529E+02  0.00000000000E+00 0.  1.
         21    1    1    2  504  502  0.21482574543E+02  0.11621961622E+02  0.28880360260E+01  0.24594953813E+02  0.00000000000E+00 0. -1.
<mgrwt>
<rscale>  2 0.24424803E+02</rscale>
<asrwt>0</asrwt>
<pdfrwt beam="1">  1       21 0.29359102E-02 0.24424803E+02</pdfrwt>
<pdfrwt beam="2">  1       21 0.59650412E-02 0.24424803E+02</pdfrwt>
<totfact> 0.90928830E+07</totfact>
</mgrwt>
</event>
<event>
 4    1  0.4353697E+006  0.2058809E+02  0.7546771E-02  0.1733880E+00
         21   -1    0    0  502  501  0.00000000000E+00  0.00000000000E+00  0.20082478117E+02  0.20082478117E+02  0.00000000000E+00 0. -1.
         21   -1    0    0  504  502 -0.00000000000E+00 -0.00000000000E+00 -0.26955093017E+02  0.26955093017E+02  0.00000000000E+00 0. -1.
         21    1    1    2  503  501  0.11381786363E+02 -0.17155881320E+02  0.75189590884E+01  0.21918121965E+02  0.00000000000E+00 0. -1.
         21    1    1    2  504  503 -0.11381786363E+02  0.17155881320E+02 -0.14391573988E+02  0.25119449169E+02  0.00000000000E+00 0. -1.
<mgrwt>
<rscale>  2 0.20588087E+02</rscale>
<asrwt>0</asrwt>
<pdfrwt beam="1">  1       21 0.30896120E-02 0.20588087E+02</pdfrwt>
<pdfrwt beam="2">  1       21 0.41469374E-02 0.20588087E+02</pdfrwt>
<totfact> 0.14235255E+08</totfact>
</mgrwt>
</event>
<event>
 4    1  0.4353697E+006  0.2197814E+02  0.7546771E-02  0.1708630E+00
         21   -1    0    0  502  501  0.00000000000E+00  0.00000000000E+00  0.57398801428E+01  0.57398801428E+01  0.00000000000E+00 0. -1.
         21   -1    0    0  503  502 -0.00000000000E+00 -0.00000000000E+00 -0.84959922168E+02  0.84959922168E+02  0.00000000000E+00 0. -1.
         21    1    1    2  503  504 -0.13940443156E+02 -0.16991254205E+02 -0.35195431316E+02  0.41494060543E+02  0.00000000000E+00 0. -1.
         21    1    1    2  504  501  0.13940443156E+02  0.16991254205E+02 -0.44024610710E+02  0.49205741768E+02  0.00000000000E+00 0. -1.
<mgrwt>
<rscale>  2 0.21978141E+02</rscale>
<asrwt>0</asrwt>
<pdfrwt beam="1">  1       21 0.88305856E-03 0.21978141E+02</pdfrwt>
<pdfrwt beam="2">  1       21 0.13070756E-01 0.21978141E+02</pdfrwt>
<totfact> 0.15176333E+08</totfact>
</mgrwt>
</event>
<event>
 4    1  0.4353697E+006  0.2605096E+02  0.7546771E-02  0.1646350E+00
         21   -1    0    0  503  501  0.00000000000E+00  0.00000000000E+00  0.46804248724E+02  0.46804248724E+02  0.00000000000E+00 0. -1.
         21   -1    0    0  504  502 -0.00000000000E+00 -0.00000000000E+00 -0.15001004867E+02  0.15001004867E+02  0.00000000000E+00 0. -1.
         21    1    1    2  503  502 -0.25441195146E+02  0.56033886512E+01  0.10253010958E+02  0.27996010583E+02  0.00000000000E+00 0. -1.
         21    1    1    2  504  501  0.25441195146E+02 -0.56033886512E+01  0.21550232899E+02  0.33809243009E+02  0.00000000000E+00 0. -1.
<mgrwt>
<rscale>  2 0.26050957E+02</rscale>
<asrwt>0</asrwt>
<pdfrwt beam="1">  1       21 0.72006536E-02 0.26050957E+02</pdfrwt>
<pdfrwt beam="2">  1       21 0.23078469E-02 0.26050957E+02</pdfrwt>
<totfact> 0.99104523E+07</totfact>
</mgrwt>
</event>
<event>
 4    1  0.4353697E+006  0.2903710E+02  0.7546771E-02  0.1608983E+00
         21   -1    0    0  504  501  0.00000000000E+00  0.00000000000E+00  0.35556379671E+02  0.35556379671E+02  0.00000000000E+00 0.  1.
         21   -1    0    0  503  502 -0.00000000000E+00 -0.00000000000E+00 -0.34169133763E+03  0.34169133763E+03  0.00000000000E+00 0. -1.
         21    1    1    2  503  501  0.94542373601E+01 -0.27454885299E+02 -0.33502847843E+03  0.33628445502E+03  0.00000000000E+00 0. -1.
         21    1    1    2  504  502 -0.94542373601E+01  0.27454885299E+02  0.28893520474E+02  0.40963262275E+02  0.00000000000E+00 0.  1.
<mgrwt>
<rscale>  2 0.29037103E+02</rscale>
<asrwt>0</asrwt>
<pdfrwt beam="1">  1       21 0.54702122E-02 0.29037103E+02</pdfrwt>
<pdfrwt beam="2">  1       21 0.52567899E-01 0.29037103E+02</pdfrwt>
<totfact> 0.76537733E+05</totfact>
</mgrwt>
</event>
<event>
 4    1  0.4353697E+006  0.2103142E+02  0.7546771E-02  0.1725562E+00
         21   -1    0    0  504  501  0.00000000000E+00  0.00000000000E+00  0.42087317054E+02  0.42087317054E+02  0.00000000000E+00 0. -1.
         21   -1    0    0  503  502 -0.00000000000E+00 -0.00000000000E+00 -0.47019211971E+02  0.47019211971E+02  0.00000000000E+00 0. -1.
         21    1    1    2  503  501  0.20928291467E+02 -0.20802328951E+01 -0.41725512429E+02  0.46726214699E+02  0.00000000000E+00 0. -1.
         21    1    1    2  504  502 -0.20928291467E+02  0.20802328951E+01  0.36793617513E+02  0.42380314326E+02  0.00000000000E+00 0. -1.
<mgrwt>
<rscale>  2 0.21031423E+02</rscale>
<asrwt>0</asrwt>
<pdfrwt beam="1">  1       21 0.64749719E-02 0.21031423E+02</pdfrwt>
<pdfrwt beam="2">  1       21 0.72337249E-02 0.21031423E+02</pdfrwt>
<totfact> 0.18358805E+07</totfact>
</mgrwt>
</event>
<event>
 4    1  0.4353697E+006  0.2751594E+02  0.7546771E-02  0.1627290E+00
         21   -1    0    0  504  501  0.00000000000E+00  0.00000000000E+00  0.81060061272E+01  0.81060061272E+01  0.00000000000E+00 0. -1.
         21   -1    0    0  503  502 -0.00000000000E+00 -0.00000000000E+00 -0.57634244024E+03  0.57634244024E+03  0.00000000000E+00 0.  1.
         21    1    1    2  503  501 -0.11772346477E+02  0.24870439639E+02 -0.16619218968E+02  0.32145378339E+02  0.00000000000E+00 0. -1.
         21    1    1    2  504  502  0.11772346477E+02 -0.24870439639E+02 -0.55161721515E+03  0.55230306803E+03  0.00000000000E+00 0.  1.
<mgrwt>
<rscale>  2 0.27515939E+02</rscale>
<asrwt>0</asrwt>
<pdfrwt beam="1">  1       21 0.12470774E-02 0.27515939E+02</pdfrwt>
<pdfrwt beam="2">  1       21 0.88668102E-01 0.27515939E+02</pdfrwt>
<totfact> 0.26140191E+06</totfact>
</mgrwt>
</event>
<event>
 4    1  0.4353697E+006  0.2132347E+02  0.7546771E-02  0.1720222E+00
         21   -1    0    0  502  501  0.00000000000E+00  0.00000000000E+00  0.84423238131E+02  0.84423238131E+02  0.00000000000E+00 0.  1.
         21   -1    0    0  503  502 -0.00000000000E+00 -0.00000000000E+00 -0.21597978539E+02  0.21597978539E+02  0.00000000000E+00 0. -1.
         21    1    1    2  503  504  0.15800079663E+02 -0.14319490817E+02 -0.14515244363E+02  0.25795012183E+02  0.00000000000E+00 0. -1.
         21    1    1    2  504  501 -0.15800079663E+02  0.14319490817E+02  0.77340503955E+02  0.80226204488E+02  0.00000000000E+00 0.  1.
<mgrwt>
<rscale>  2 0.21323469E+02</rscale>
<asrwt>0</asrwt>
<pdfrwt beam="1">  1       21 0.12988190E-01 0.21323469E+02</pdfrwt>
<pdfrwt beam="2">  1       21 0.33227660E-02 0.21323469E+02</pdfrwt>
<totfact> 0.20188690E+07</totfact>
</mgrwt>
</event>
<event>
 4    1  0.4353697E+006  0.2031882E+02  0.7546771E-02  0.1739061E+00
         21   -1    0    0  502  501  0.00000000000E+00  0.00000000000E+00  0.63369971753E+01  0.63369971753E+01  0.00000000000E+00 0. -1.
         21   -1    0    0  504  502 -0.00000000000E+00 -0.00000000000E+00 -0.18272860860E+03  0.18272860860E+03  0.00000000000E+00 0. -1.
         21    1    1    2  503  501 -0.16105216359E+02 -0.12388558576E+02 -0.12365342732E+02  0.23785627560E+02  0.00000000000E+00 0. -1.
         21    1    1    2  504  503  0.16105216359E+02  0.12388558576E+02 -0.16402626869E+03  0.16527997821E+03  0.00000000000E+00 0. -1.
<mgrwt>
<rscale>  2 0.20318818E+02</rscale>
<asrwt>0</asrwt>
<pdfrwt beam="1">  1       21 0.97492278E-03 0.20318818E+02</pdfrwt>
<pdfrwt beam="2">  1       21 0.28112090E-01 0.20318818E+02</pdfrwt>
<totfact> 0.33962926E+07</totfact>
</mgrwt>
</event>
<event>
 4    1  0.4353697E+006  0.2072524E+02  0.7546771E-02  0.1731279E+00
         21   -1    0    0  504  501  0.00000000000E+00  0.00000000000E+00  0.12445020708E+02  0.12445020708E+02  0.00000000000E+00 0. -1.
         21   -1    0    0  503  502 -0.00000000000E+00 -0.00000000000E+00 -0.62881598423E+02  0.62881598423E+02  0.00000000000E+00 0.  1.
         21    1    1    2  503  501  0.10349666237E+02  0.17956061588E+02  0.78353274294E-01  0.20725392113E+02  0.00000000000E+00 0. -1.
         21    1    1    2  504  502 -0.10349666237E+02 -0.17956061588E+02 -0.50514930989E+02  0.54601227018E+02  0.00000000000E+00 0.  1.
<mgrwt>
<rscale>  2 0.20725244E+02</rscale>
<asrwt>0</asrwt>
<pdfrwt beam="1">  1       21 0.19146186E-02 0.20725244E+02</pdfrwt>
<pdfrwt beam="2">  1       21 0.96740919E-02 0.20725244E+02</pdfrwt>
<totfact> 0.76486171E+07</totfact>
</mgrwt>
</event>
<event>
 4    1  0.4353697E+006  0.2830864E+02  0.7546771E-02  0.1617574E+00
         21   -1    0    0  503  501  0.00000000000E+00  0.00000000000E+00  0.56145450003E+02  0.56145450003E+02  0.00000000000E+00 0. -1.
         21   -1    0    0  501  502 -0.00000000000E+00 -0.00000000000E+00 -0.63554732491E+02  0.63554732491E+02  0.00000000000E+00 0. -1.
         21    1    1    2  503  504 -0.27075819499E+02  0.82631265135E+01  0.48998033359E+02  0.56587865611E+02  0.00000000000E+00 0. -1.
         21    1    1    2  504  502  0.27075819499E+02 -0.82631265135E+01 -0.56407315848E+02  0.63112316884E+02  0.00000000000E+00 0. -1.
<mgrwt>
<rscale>  2 0.28308643E+02</rscale>
<asrwt>0</asrwt>
<pdfrwt beam="1">  1       21 0.86377615E-02 0.28308643E+02</pdfrwt>
<pdfrwt beam="2">  1       21 0.97776512E-02 0.28308643E+02</pdfrwt>
<totfact> 0.74136563E+06</totfact>
</mgrwt>
</event>
<event>
 4    1  0.4353697E+006  0.4019683E+02  0.7546771E-02  0.1506768E+00
         21   -1    0    0  504  501  0.00000000000E+00  0.00000000000E+00  0.46459842380E+02  0.46459842380E+02  0.00000000000E+00 0.  1.
         21   -1    0    0  501  502 -0.00000000000E+00 -0.00000000000E+00 -0.51174026807E+02  0.51174026807E+02  0.00000000000E+00 0.  1.
         21    1    1    2  503  502 -0.25704278334E+01 -0.40114560683E+02 -0.29989179021E+02  0.50151130958E+02  0.00000000000E+00 0.  1.
         21    1    1    2  504  503  0.25704278334E+01  0.40114560683E+02  0.25274994594E+02  0.47482738229E+02  0.00000000000E+00 0.  1.
<mgrwt>
<rscale>  2 0.40196829E+02</rscale>
<asrwt>0</asrwt>
<pdfrwt beam="1">  1       21 0.71476681E-02 0.40196829E+02</pdfrwt>
<pdfrwt beam="2">  1       21 0.78729272E-02 0.40196829E+02</pdfrwt>
<totfact> 0.15353758E+07</totfact>
</mgrwt>
</event>
<event>
 4    1  0.4353697E+006  0.2260370E+02  0.7546771E-02  0.1698016E+00
         21   -1    0    0  503  501  0.00000000000E+00  0.00000000000E+00  0.29236609345E+02  0.29236609345E+02  0.00000000000E+00 0. -1.
         21   -1    0    0  504  502 -0.00000000000E+00 -0.00000000000E+00 -0.28893915349E+03  0.28893915349E+03  0.00000000000E+00 0.  1.
         21    1    1    2  503  502 -0.14162648543E+02 -0.17616664029E+02 -0.28405314917E+03  0.28495108180E+03  0.00000000000E+00 0.  1.
         21    1    1    2  504  501  0.14162648543E+02  0.17616664029E+02  0.24350605022E+02  0.33224681039E+02  0.00000000000E+00 0. -1.
<mgrwt>
<rscale>  2 0.22603705E+02</rscale>
<asrwt>0</asrwt>
<pdfrwt beam="1">  1       21 0.44979396E-02 0.22603705E+02</pdfrwt>
<pdfrwt beam="2">  1       21 0.44452181E-01 0.22603705E+02</pdfrwt>
<totfact> 0.14187205E+06</totfact>
</mgrwt>
</event>
<event>
 4    1  0.4353697E+006  0.2058183E+02  0.7546771E-02  0.1733999E+00
         21   -1    0    0  504  501  0.00000000000E+00  0.00000000000E+00  0.75371262536E+01  0.75371262536E+01  0.00000000000E+00 0.  1.
         21   -1    0    0  503  502 -0.00000000000E+00 -0.00000000000E+00 -0.56718301371E+02  0.56718301371E+02  0.00000000000E+00 0.  1.
         21    1    1    2  503  501 -0.23622531514E+01  0.20445813493E+02 -0.27651940345E+02  0.34470876609E+02  0.00000000000E+00 0.  1.
         21    1    1    2  504  502  0.23622531514E+01 -0.20445813493E+02 -0.21529234772E+02  0.29784551016E+02  0.00000000000E+00 0.  1.
<mgrwt>
<rscale>  2 0.20581825E+02</rscale>
<asrwt>0</asrwt>
<pdfrwt beam="1">  1       21 0.11595579E-02 0.20581825E+02</pdfrwt>
<pdfrwt beam="2">  1       21 0.87258926E-02 0.20581825E+02</pdfrwt>
<totfact> 0.19308619E+08</totfact>
</mgrwt>
</event>
<event>
 4    1  0.4353697E+006  0.2327532E+02  0.7546771E-02  0.1687086E+00
         21   -1    0    0  504  501  0.00000000000E+00  0.00000000000E+00  0.28159211765E+02  0.28159211765E+02  0.00000000000E+00 0.  1.
         21   -1    0    0  503  502 -0.00000000000E+00 -0.00000000000E+00 -0.10271619167E+04  0.10271619167E+04  0.00000000000E+00 0. -1.
         21    1    1    2  503  501  0.23085186153E+02 -0.29689573392E+01  0.23194379791E+02  0.32859089781E+02  0.00000000000E+00 0.  1.
         21    1    1    2  504  502 -0.23085186153E+02  0.29689573392E+01 -0.10221970848E+04  0.10224620387E+04  0.00000000000E+00 0. -1.
<mgrwt>
<rscale>  2 0.23275320E+02</rscale>
<asrwt>0</asrwt>
<pdfrwt beam="1">  1       21 0.43321862E-02 0.23275320E+02</pdfrwt>
<pdfrwt beam="2">  1       21 0.15802492E+00 0.23275320E+02</pdfrwt>
<totfact> 0.10140273E+05</totfact>
</mgrwt>
</event>
<event>
 4    1  0.4353697E+006  0.2226676E+02  0.7546771E-02  0.1703679E+00
         21   -1    0    0  504  501  0.00000000000E+00  0.00000000000E+00  0.13542290959E+03  0.13542290959E+03  0.00000000000E+00 0. -1.
         21   -1    0    0  503  502 -0.00000000000E+00 -0.00000000000E+00 -0.74546757993E+02  0.74546757993E+02  0.00000000000E+00 0.  1.
         21    1    1    2  503  501  0.14371874422E+02  0.17007581894E+02 -0.71936261889E+02  0.75303614726E+02  0.00000000000E+00 0.  1.
         21    1    1    2  504  502 -0.14371874422E+02 -0.17007581894E+02  0.13281241348E+03  0.13466605285E+03  0.00000000000E+00 0. -1.
<mgrwt>
<rscale>  2 0.22266760E+02</rscale>
<asrwt>0</asrwt>
<pdfrwt beam="1">  1       21 0.20834294E-01 0.22266760E+02</pdfrwt>
<pdfrwt beam="2">  1       21 0.11468732E-01 0.22266760E+02</pdfrwt>
<totfact> 0.12356786E+06</totfact>
</mgrwt>
</event>
<event>
 4    1  0.4353697E+006  0.2298786E+02  0.7546771E-02  0.1691707E+00
         21   -1    0    0  503  501  0.00000000000E+00  0.00000000000E+00  0.36947033685E+03  0.36947033685E+03  0.00000000000E+00 0. -1.
         21   -1    0    0  504  502 -0.00000000000E+00 -0.00000000000E+00 -0.14364306457E+01  0.14364306457E+01  0.00000000000E+00 0.  1.
         21    1    1    2  503  502  0.99048638494E+01 -0.20744524394E+02  0.17186981188E+03  0.17340032831E+03  0.00000000000E+00 0. -1.
         21    1    1    2  504  501 -0.99048638494E+01  0.20744524394E+02  0.19616409433E+03  0.19750643919E+03  0.00000000000E+00 0.  1.
<mgrwt>
<rscale>  2 0.22987858E+02</rscale>
<asrwt>0</asrwt>
<pdfrwt beam="1">  1       21 0.56841514E-01 0.22987858E+02</pdfrwt>
<pdfrwt beam="2">  1       21 0.22098963E-03 0.22987858E+02</pdfrwt>
<totfact> 0.82419208E+07</totfact>
</mgrwt>
</event>
<event>
 4    1  0.4353697E+006  0.2096644E+02  0.7546771E-02  0.1726765E+00
         21   -1    0    0  503  501  0.00000000000E+00  0.00000000000E+00  0.19235868447E+03  0.19235868447E+03  0.00000000000E+00 0. -1.
         21   -1    0    0  504  502 -0.00000000000E+00 -0.00000000000E+00 -0.46333552893E+02  0.46333552893E+02  0.00000000000E+00 0.  1.
         21    1    1    2  503  502 -0.17705798156E+02  0.11229263215E+02  0.18937826588E+03  0.19053534903E+03  0.00000000000E+00 0. -1.
         21    1    1    2  504  501  0.17705798156E+02 -0.11229263215E+02 -0.43353134302E+02  0.48156888339E+02  0.00000000000E+00 0.  1.
<mgrwt>
<rscale>  2 0.20966441E+02</rscale>
<asrwt>0</asrwt>
<pdfrwt beam="1">  1       21 0.29593643E-01 0.20966441E+02</pdfrwt>
<pdfrwt beam="2">  1       21 0.71282390E-02 0.20966441E+02</pdfrwt>
<totfact> 0.14347160E+06</totfact>
</mgrwt>
</event>
<event>
 4    1  0.4353697E+006  0.2191337E+02  0.7546771E-02  0.1709755E+00
         21   -1    0    0  502  501  0.00000000000E+00  0.00000000000E+00  0.90846564961E+01  0.90846564961E+01  0.00000000000E+00 0. -1.
         21   -1    0    0  503  502 -0.00000000000E+00 -0.00000000000E+00 -0.81221161450E+02  0.81221161450E+02  0.00000000000E+00 0. -1.
         21    1    1    2  503  504  0.15195461975E+02 -0.15789031722E+02 -0.62750932914E+02  0.66467098394E+02  0.00000000000E+00 0. -1.
         21    1    1    2  504  501 -0.15195461975E+02  0.15789031722E+02 -0.93855720398E+01  0.23838719552E+02  0.00000000000E+00 0. -1.
<mgrwt>
<rscale>  2 0.21913365E+02</rscale>
<asrwt>0</asrwt>
<pdfrwt beam="1">  1       21 0.13976394E-02 0.21913365E+02</pdfrwt>
<pdfrwt beam="2">  1       21 0.12495564E-01 0.21913365E+02</pdfrwt>
<totfact> 0.81978658E+07</totfact>
</mgrwt>
</event>
<event>
 4    1  0.4353697E+006  0.2193093E+02  0.7546771E-02  0.1709449E+00
         21   -1    0    0  503  501  0.00000000000E+00  0.00000000000E+00  0.54451030323E+02  0.54451030323E+02  0.00000000000E+00 0. -1.
         21   -1    0    0  504  502 -0.00000000000E+00 -0.00000000000E+00 -0.28449241746E+03  0.28449241746E+03  0.00000000000E+00 0.  1.
         21    1    1    2  503  502  0.53996284308E+01  0.21255817083E+02 -0.28184077133E+03  0.28269274156E+03  0.00000000000E+00 0.  1.
         21    1    1    2  504  501 -0.53996284308E+01 -0.21255817083E+02  0.51799384196E+02  0.56250706219E+02  0.00000000000E+00 0. -1.
<mgrwt>
<rscale>  2 0.21930931E+02</rscale>
<asrwt>0</asrwt>
<pdfrwt beam="1">  1       21 0.83770818E-02 0.21930931E+02</pdfrwt>
<pdfrwt beam="2">  1       21 0.43768063E-01 0.21930931E+02</pdfrwt>
<totfact> 0.53656403E+05</totfact>
</mgrwt>
</event>
<event>
 4    1  0.4353697E+006  0.2015713E+02  0.7546771E-02  0.1742221E+00
         21   -1    0    0  503  501  0.00000000000E+00  0.00000000000E+00  0.31171792452E+00  0.31171792452E+00  0.00000000000E+00 0.  1.
         21   -1    0    0  504  502 -0.00000000000E+00 -0.00000000000E+00 -0.14022594293E+04  0.14022594293E+04  0.00000000000E+00 0.  1.
         21    1    1    2  503  502 -0.54039818304E+01  0.19419238018E+02 -0.88712777666E+03  0.88735675010E+03  0.00000000000E+00 0.  1.
         21    1    1    2  504  501  0.54039818304E+01 -0.19419238018E+02 -0.51481993474E+03  0.51521439715E+03  0.00000000000E+00 0.  1.
<mgrwt>
<rscale>  2 0.20157128E+02</rscale>
<asrwt>0</asrwt>
<pdfrwt beam="1">  1       21 0.47956153E-04 0.20157128E+02</pdfrwt>
<pdfrwt beam="2">  1       21 0.21573425E+00 0.20157128E+02</pdfrwt>
<totfact> 0.35346896E+07</totfact>
</mgrwt>
</event>
<event>
 4    1  0.4353697E+006  0.2236631E+02  0.7546771E-02  0.1701993E+00
         21   -1    0    0  503  501  0.00000000000E+00  0.00000000000E+00  0.31192790295E+01  0.31192790295E+01  0.00000000000E+00 0.  1.
         21   -1    0    0  501  502 -0.00000000000E+00 -0.00000000000E+00 -0.29848491516E+03  0.29848491516E+03  0.00000000000E+00 0. -1.
         21    1    1    2  503  504  0.21594309212E+02  0.58256182078E+01 -0.45103500801E+02  0.50344590596E+02  0.00000000000E+00 0.  1.
         21    1    1    2  504  502 -0.21594309212E+02 -0.58256182078E+01 -0.25026213533E+03  0.25125960359E+03  0.00000000000E+00 0. -1.
<mgrwt>
<rscale>  2 0.22366314E+02</rscale>
<asrwt>0</asrwt>
<pdfrwt beam="1">  1       21 0.47988903E-03 0.22366314E+02</pdfrwt>
<pdfrwt beam="2">  1       21 0.45920761E-01 0.22366314E+02</pdfrwt>
<totfact> 0.40021013E+07</totfact>
</mgrwt>
</event>
<event>
 4    1  0.4353697E+006  0.2110713E+02  0.7546771E-02  0.1724167E+00
         21   -1    0    0  504  501  0.00000000000E+00  0.00000000000E+00  0.72893169771E+02  0.72893169771E+02  0.00000000000E+00 0.  1.
         21   -1    0    0  503  502 -0.00000000000E+00 -0.00000000000E+00 -0.63015527845E+01  0.63015527845E+01  0.00000000000E+00 0.  1.
         21    1    1    2  503  501  0.15536615979E+02  0.14287213760E+02  0.26425151680E+02  0.33820105771E+02  0.00000000000E+00 0.  1.
         21    1    1    2  504  502 -0.15536615979E+02 -0.14287213760E+02  0.40166465307E+02  0.45374616785E+02  0.00000000000E+00 0.  1.
<mgrwt>
<rscale>  2 0.21107129E+02</rscale>
<asrwt>0</asrwt>
<pdfrwt beam="1">  1       21 0.11214333E-01 0.21107129E+02</pdfrwt>
<pdfrwt beam="2">  1       21 0.96946971E-03 0.21107129E+02</pdfrwt>
<totfact> 0.16840646E+08</totfact>
</mgrwt>
</event>
<event>
 4    1  0.4353697E+006  0.2724309E+02  0.7546771E-02  0.1630728E+00
         21   -1    0    0  502  501  0.00000000000E+00  0.00000000000E+00  0.14156538970E+02  0.14156538970E+02  0.00000000000E+00 0. -1.
         21   -1    0    0  503  502 -0.00000000000E+00 -0.00000000000E+00 -0.92400211752E+02  0.92400211752E+02  0.00000000000E+00 0.  1.
         21    1    1    2  503  504 -0.16873888506E+02  0.21388261548E+02 -0.74164623261E+02  0.79009981577E+02  0.00000000000E+00 0.  1.
         21    1    1    2  504  501  0.16873888506E+02 -0.21388261548E+02 -0.40790495219E+01  0.27546769145E+02  0.00000000000E+00 0. -1.
<mgrwt>
<rscale>  2 0.27243088E+02</rscale>
<asrwt>0</asrwt>
<pdfrwt beam="1">  1       21 0.21779291E-02 0.27243088E+02</pdfrwt>
<pdfrwt beam="2">  1       21 0.14215417E-01 0.27243088E+02</pdfrwt>
<totfact> 0.35279305E+07</totfact>
</mgrwt>
</event>
<event>
 4    1  0.4353697E+006  0.3527807E+02  0.7546771E-02  0.1546145E+00
         21   -1    0    0  504  501  0.00000000000E+00  0.00000000000E+00  0.37878129065E+01  0.37878129065E+01  0.00000000000E+00 0.  1.
         21   -1    0    0  503  502 -0.00000000000E+00 -0.00000000000E+00 -0.33080691302E+03  0.33080691302E+03  0.00000000000E+00 0.  1.
         21    1    1    2  503  501  0.32024288154E+02 -0.14798224067E+02 -0.14973687330E+03  0.15383651613E+03  0.00000000000E+00 0.  1.
         21    1    1    2  504  502 -0.32024288154E+02  0.14798224067E+02 -0.17728222681E+03  0.18075820980E+03  0.00000000000E+00 0.  1.
<mgrwt>
<rscale>  2 0.35278073E+02</rscale>
<asrwt>0</asrwt>
<pdfrwt beam="1">  1       21 0.58274044E-03 0.35278073E+02</pdfrwt>
<pdfrwt beam="2">  1       21 0.50893372E-01 0.35278073E+02</pdfrwt>
<totfact> 0.26850724E+07</totfact>
</mgrwt>
</event>
<event>
 4    1  0.4353697E+006  0.2038745E+02  0.7546771E-02  0.1737731E+00
         21   -1    0    0  503  501  0.00000000000E+00  0.00000000000E+00  0.10903658769E+03  0.10903658769E+03  0.00000000000E+00 0. -1.
         21   -1    0    0  504  502 -0.00000000000E+00 -0.00000000000E+00 -0.13042802858E+02  0.13042802858E+02  0.00000000000E+00 0.  1.
         21    1    1    2  503  502  0.16049713477E+02 -0.12571987179E+02 -0.33538208635E+01  0.20661468455E+02  0.00000000000E+00 0.  1.
         21    1    1    2  504  501 -0.16049713477E+02  0.12571987179E+02  0.99347605698E+02  0.10141792210E+03  0.00000000000E+00 0. -1.
<mgrwt>
<rscale>  2 0.20387451E+02</rscale>
<asrwt>0</asrwt>
<pdfrwt beam="1">  1       21 0.16774859E-01 0.20387451E+02</pdfrwt>
<pdfrwt beam="2">  1       21 0.20065851E-02 0.20387451E+02</pdfrwt>
<totfact> 0.28205954E+07</totfact>
</mgrwt>
</event>
<event>
 4    1  0.4353697E+006  0.3048665E+02  0.7546771E-02  0.1592771E+00
         21   -1    0    0  503  501  0.00000000000E+00  0.00000000000E+00  0.18515595188E+02  0.18515595188E+02  0.00000000000E+00 0.  1.
         21   -1    0    0  504  502 -0.00000000000E+00 -0.00000000000E+00 -0.16170460105E+03  0.16170460105E+03  0.00000000000E+00 0. -1.
         21    1    1    2  503  502 -0.23477966630E+02 -0.19447908015E+02 -0.14642240928E+03  0.14956255541E+03  0.00000000000E+00 0. -1.
         21    1    1    2  504  501  0.23477966630E+02  0.19447908015E+02  0.32334034153E+01  0.30657640824E+02  0.00000000000E+00 0.  1.
<mgrwt>
<rscale>  2 0.30486654E+02</rscale>
<asrwt>0</asrwt>
<pdfrwt beam="1">  1       21 0.28485534E-02 0.30486654E+02</pdfrwt>
<pdfrwt beam="2">  1       21 0.24877629E-01 0.30486654E+02</pdfrwt>
<totfact> 0.88899847E+06</totfact>
</mgrwt>
</event>
<event>
 4    1  0.4353697E+006  0.2090908E+02  0.7546771E-02  0.1727832E+00
         21   -1    0    0  503  501  0.00000000000E+00  0.00000000000E+00  0.98432485123E+02  0.98432485123E+02  0.00000000000E+00 0. -1.
         21   -1    0    0  504  502 -0.00000000000E+00 -0.00000000000E+00 -0.50672024589E+01  0.50672024589E+01  0.00000000000E+00 0.  1.
         21    1    1    2  503  502 -0.33300179853E+01  0.20642203018E+02  0.28498076464E+02  0.35345861531E+02  0.00000000000E+00 0.  1.
         21    1    1    2  504  501  0.33300179853E+01 -0.20642203018E+02  0.64867206200E+02  0.68153826051E+02  0.00000000000E+00 0. -1.
<mgrwt>
<rscale>  2 0.20909079E+02</rscale>
<asrwt>0</asrwt>
<pdfrwt beam="1">  1       21 0.15143458E-01 0.20909079E+02</pdfrwt>
<pdfrwt beam="2">  1       21 0.77956968E-03 0.20909079E+02</pdfrwt>
<totfact> 0.14040584E+08</totfact>
</mgrwt>
</event>
<event>
 4    1  0.4353697E+006  0.2842500E+02  0.7546771E-02  0.1616180E+00
         21   -1    0    0  504  501  0.00000000000E+00  0.00000000000E+00  0.27156212529E+03  0.27156212529E+03  0.00000000000E+00 0.  1.
         21   -1    0    0  503  502 -0.00000000000E+00 -0.00000000000E+00 -0.14522423500E+02  0.14522423500E+02  0.00000000000E+00 0.  1.
         21    1    1    2  503  501  0.14993838885E+01 -0.28385428962E+02  0.96950833619E+00  0.28441530828E+02  0.00000000000E+00 0.  1.
         21    1    1    2  504  502 -0.14993838885E+01  0.28385428962E+02  0.25607019345E+03  0.25764301796E+03  0.00000000000E+00 0.  1.
<mgrwt>
<rscale>  2 0.28425002E+02</rscale>
<asrwt>0</asrwt>
<pdfrwt beam="1">  1       21 0.41778785E-01 0.28425002E+02</pdfrwt>
<pdfrwt beam="2">  1       21 0.22342192E-02 0.28425002E+02</pdfrwt>
<totfact> 0.49165552E+06</totfact>
</mgrwt>
</event>
<event>
 4    1  0.4353697E+006  0.3730583E+02  0.7546771E-02  0.1529028E+00
         21   -1    0    0  502  501  0.00000000000E+00  0.00000000000E+00  0.74131984470E+01  0.74131984470E+01  0.00000000000E+00 0.  1.
         21   -1    0    0  504  502 -0.00000000000E+00 -0.00000000000E+00 -0.44337272756E+03  0.44337272756E+03  0.00000000000E+00 0. -1.
         21    1    1    2  503  501  0.10028738313E+02  0.35932562674E+02 -0.46833493710E+02  0.59875711148E+02  0.00000000000E+00 0.  1.
         21    1    1    2  504  503 -0.10028738313E+02 -0.35932562674E+02 -0.38912603540E+03  0.39091021486E+03  0.00000000000E+00 0. -1.
<mgrwt>
<rscale>  2 0.37305826E+02</rscale>
<asrwt>0</asrwt>
<pdfrwt beam="1">  1       21 0.11404917E-02 0.37305826E+02</pdfrwt>
<pdfrwt beam="2">  1       21 0.68211212E-01 0.37305826E+02</pdfrwt>
<totfact> 0.53918601E+06</totfact>
</mgrwt>
</event>
<event>
 4    1  0.4353697E+006  0.2249767E+02  0.7546771E-02  0.1699785E+00
         21   -1    0    0  502  501  0.00000000000E+00  0.00000000000E+00  0.72328040330E+03  0.72328040330E+03  0.00000000000E+00 0.  1.
         21   -1    0    0  503  502 -0.00000000000E+00 -0.00000000000E+00 -0.34793388055E+01  0.34793388055E+01  0.00000000000E+00 0. -1.
         21    1    1    2  503  504  0.13760137998E+02  0.17798979350E+02  0.35112823300E+02  0.41701983451E+02  0.00000000000E+00 0. -1.
         21    1    1    2  504  501 -0.13760137998E+02 -0.17798979350E+02  0.68468824120E+03  0.68505775866E+03  0.00000000000E+00 0.  1.
<mgrwt>
<rscale>  2 0.22497668E+02</rscale>
<asrwt>0</asrwt>
<pdfrwt beam="1">  1       21 0.11127379E+00 0.22497668E+02</pdfrwt>
<pdfrwt beam="2">  1       21 0.53528347E-03 0.22497668E+02</pdfrwt>
<totfact> 0.55016485E+06</totfact>
</mgrwt>
</event>
<event>
 4    1  0.4353697E+006  0.2463233E+02  0.7546771E-02  0.1666340E+00
         21   -1    0    0  502  501  0.00000000000E+00  0.00000000000E+00  0.29567924471E+02  0.29567924471E+02  0.00000000000E+00 0.  1.
         21   -1    0    0  503  502 -0.00000000000E+00 -0.00000000000E+00 -0.24564697821E+03  0.24564697821E+03  0.00000000000E+00 0.  1.
         21    1    1    2  503  504  0.94562134304E+01 -0.22744924770E+02 -0.23977399723E+03  0.24103593368E+03  0.00000000000E+00 0.  1.
         21    1    1    2  504  501 -0.94562134304E+01  0.22744924770E+02  0.23694943491E+02  0.34178969005E+02  0.00000000000E+00 0.  1.
<mgrwt>
<rscale>  2 0.24632328E+02</rscale>
<asrwt>0</asrwt>
<pdfrwt beam="1">  1       21 0.45489113E-02 0.24632328E+02</pdfrwt>
<pdfrwt beam="2">  1       21 0.37791844E-01 0.24632328E+02</pdfrwt>
<totfact> 0.19133948E+06</totfact>
</mgrwt>
</event>
<event>
 4    1  0.4353697E+006  0.3354119E+02  0.7546771E-02  0.1561950E+00
         21   -1    0    0  504  501  0.00000000000E+00  0.00000000000E+00  0.78465270506E+02  0.78465270506E+02  0.00000000000E+00 0. -1.
         21   -1    0    0  501  502 -0.00000000000E+00 -0.00000000000E+00 -0.20934132755E+02  0.20934132755E+02  0.00000000000E+00 0.  1.
         21    1    1    2  503  502 -0.33536307979E+02  0.57200225194E+00  0.86705822312E+00  0.33552390815E+02  0.00000000000E+00 0.  1.
         21    1    1    2  504  503  0.33536307979E+02 -0.57200225194E+00  0.56664079527E+02  0.65847012446E+02  0.00000000000E+00 0. -1.
<mgrwt>
<rscale>  2 0.33541186E+02</rscale>
<asrwt>0</asrwt>
<pdfrwt beam="1">  1       21 0.12071580E-01 0.33541186E+02</pdfrwt>
<pdfrwt beam="2">  1       21 0.32206358E-02 0.33541186E+02</pdfrwt>
<totfact> 0.26348427E+07</totfact>
</mgrwt>
</event>
<event>
 4    1  0.4353697E+006  0.2022803E+02  0.7546771E-02  0.1740831E+00
         21   -1    0    0  502  501  0.00000000000E+00  0.00000000000E+00  0.17203157200E+02  0.17203157200E+02  0.00000000000E+00 0.  1.
         21   -1    0    0  503  502 -0.00000000000E+00 -0.00000000000E+00 -0.38738662775E+02  0.38738662775E+02  0.00000000000E+00 0.  1.
         21    1    1    2  503  504 -0.14290575003E+02 -0.14316174711E+02 -0.28146209200E+02  0.34660964854E+02  0.00000000000E+00 0.  1.
         21    1    1    2  504  501  0.14290575003E+02  0.14316174711E+02  0.66107036258E+01  0.21280855121E+02  0.00000000000E+00 0.  1.
<mgrwt>
<rscale>  2 0.20228035E+02</rscale>
<asrwt>0</asrwt>
<pdfrwt beam="1">  1       21 0.26466396E-02 0.20228035E+02</pdfrwt>
<pdfrwt beam="2">  1       21 0.59597943E-02 0.20228035E+02</pdfrwt>
<totfact> 0.10128434E+08</totfact>
</mgrwt>
</event>
<event>
 4    1  0.4353697E+006  0.2032134E+02  0.7546771E-02  0.1739012E+00
         21   -1    0    0  504  501  0.00000000000E+00  0.00000000000E+00  0.53596286653E+03  0.53596286653E+03  0.00000000000E+00 0.  1.
         21   -1    0    0  503  502 -0.00000000000E+00 -0.00000000000E+00 -0.47748123179E+01  0.47748123179E+01  0.00000000000E+00 0. -1.
         21    1    1    2  503  501  0.20281035826E+02  0.12792757279E+01  0.17998553310E+02  0.27145992003E+02  0.00000000000E+00 0. -1.
         21    1    1    2  504  502 -0.20281035826E+02 -0.12792757279E+01  0.51318950090E+03  0.51359168685E+03  0.00000000000E+00 0.  1.
<mgrwt>
<rscale>  2 0.20321342E+02</rscale>
<asrwt>0</asrwt>
<pdfrwt beam="1">  1       21 0.82455778E-01 0.20321342E+02</pdfrwt>
<pdfrwt beam="2">  1       21 0.73458694E-03 0.20321342E+02</pdfrwt>
<totfact> 0.64822365E+06</totfact>
</mgrwt>
</event>
<event>
 4    1  0.4353697E+006  0.2123663E+02  0.7546771E-02  0.1721799E+00
         21   -1    0    0  503  501  0.00000000000E+00  0.00000000000E+00  0.81067718985E+02  0.81067718985E+02  0.00000000000E+00 0. -1.
         21   -1    0    0  504  502 -0.00000000000E+00 -0.00000000000E+00 -0.93472998478E+01  0.93472998478E+01  0.00000000000E+00 0. -1.
         21    1    1    2  503  502  0.18972894991E+02 -0.95406279053E+01  0.64624252404E+02  0.68024174555E+02  0.00000000000E+00 0. -1.
         21    1    1    2  504  501 -0.18972894991E+02  0.95406279053E+01  0.70961667335E+01  0.22390844278E+02  0.00000000000E+00 0. -1.
<mgrwt>
<rscale>  2 0.21236627E+02</rscale>
<asrwt>0</asrwt>
<pdfrwt beam="1">  1       21 0.12471956E-01 0.21236627E+02</pdfrwt>
<pdfrwt beam="2">  1       21 0.14380462E-02 0.21236627E+02</pdfrwt>
<totfact> 0.78080829E+07</totfact>
</mgrwt>
</event>
<event>
 4    1  0.4353697E+006  0.2046544E+02  0.7546771E-02  0.1736227E+00
         21   -1    0    0  503  501  0.00000000000E+00  0.00000000000E+00  0.49656172687E+02  0.49656172687E+02  0.00000000000E+00 0. -1.
         21   -1    0    0  501  502 -0.00000000000E+00 -0.00000000000E+00 -0.19544663633E+02  0.19544663633E+02  0.00000000000E+00 0. -1.
         21    1    1    2  503  504  0.20272611198E+02  0.28027895762E+01  0.41142732574E+02  0.45951701142E+02  0.00000000000E+00 0. -1.
         21    1    1    2  504  502 -0.20272611198E+02 -0.28027895762E+01 -0.11031223519E+02  0.23249135178E+02  0.00000000000E+00 0. -1.
<mgrwt>
<rscale>  2 0.20465444E+02</rscale>
<asrwt>0</asrwt>
<pdfrwt beam="1">  1       21 0.76394111E-02 0.20465444E+02</pdfrwt>
<pdfrwt beam="2">  1       21 0.30068714E-02 0.20465444E+02</pdfrwt>
<totfact> 0.55961240E+07</totfact>
</mgrwt>
</event>
<event>
 4    1  0.4353697E+006  0.2056648E+02  0.7546771E-02  0.1734292E+00
         21   -1    0    0  502  501  0.00000000000E+00  0.00000000000E+00  0.37538028985E+02  0.37538028985E+02  0.00000000000E+00 0. -1.
         21   -1    0    0  504  502 -0.00000000000E+00 -0.00000000000E+00 -0.21120812783E+02  0.21120812783E+02  0.00000000000E+00 0. -1.
         21    1    1    2  503  501 -0.54309834395E+01 -0.19836440934E+02  0.28240752073E+02  0.34935942061E+02  0.00000000000E+00 0. -1.
         21    1    1    2  504  503  0.54309834395E+01  0.19836440934E+02 -0.11823535871E+02  0.23722899707E+02  0.00000000000E+00 0. -1.
<mgrwt>
<rscale>  2 0.20566477E+02</rscale>
<asrwt>0</asrwt>
<pdfrwt beam="1">  1       21 0.57750814E-02 0.20566477E+02</pdfrwt>
<pdfrwt beam="2">  1       21 0.32493558E-02 0.20566477E+02</pdfrwt>
<totfact> 0.77890072E+07</totfact>
</mgrwt>
</event>
<event>
 4    1  0.4353697E+006  0.3465203E+02  0.7546771E-02  0.1551713E+00
         21   -1    0    0  502  501  0.00000000000E+00  0.00000000000E+00  0.68065672393E+03  0.68065672393E+03  0.00000000000E+00 0.  1.
         21   -1    0    0  504  502 -0.00000000000E+00 -0.00000000000E+00 -0.17204557640E+02  0.17204557640E+02  0.00000000000E+00 0.  1.
         21    1    1    2  503  501  0.23438620576E+02 -0.25522425314E+02  0.66228364289E+03  0.66318955569E+03  0.00000000000E+00 0.  1.
         21    1    1    2  504  503 -0.23438620576E+02  0.25522425314E+02  0.11685233899E+01  0.34671725877E+02  0.00000000000E+00 0.  1.
<mgrwt>
<rscale>  2 0.34652029E+02</rscale>
<asrwt>0</asrwt>
<pdfrwt beam="1">  1       21 0.10471640E+00 0.34652029E+02</pdfrwt>
<pdfrwt beam="2">  1       21 0.26468555E-02 0.34652029E+02</pdfrwt>
<totfact> 0.57527882E+05</totfact>
</mgrwt>
</event>
<event>
 4    1  0.4353697E+006  0.2276594E+02  0.7546771E-02  0.1695332E+00
         21   -1    0    0  504  501  0.00000000000E+00  0.00000000000E+00  0.34227559268E+02  0.34227559268E+02  0.00000000000E+00 0.  1.
         21   -1    0    0  503  502 -0.00000000000E+00 -0.00000000000E+00 -0.26350255515E+02  0.26350255515E+02  0.00000000000E+00 0.  1.
         21    1    1    2  503  501 -0.22621744470E+02 -0.25583023639E+01 -0.15815208421E+02  0.27720192121E+02  0.00000000000E+00 0.  1.
         21    1    1    2  504  502  0.22621744470E+02  0.25583023639E+01  0.23692512174E+02  0.32857622661E+02  0.00000000000E+00 0.  1.
<mgrwt>
<rscale>  2 0.22765945E+02</rscale>
<asrwt>0</asrwt>
<pdfrwt beam="1">  1       21 0.52657783E-02 0.22765945E+02</pdfrwt>
<pdfrwt beam="2">  1       21 0.40538855E-02 0.22765945E+02</pdfrwt>
<totfact> 0.65665114E+07</totfact>
</mgrwt>
</event>
<event>
 4    1  0.4353697E+006  0.3325411E+02  0.7546771E-02  0.1564674E+00
         21   -1    0    0  504  501  0.00000000000E+00  0.00000000000E+00  0.86611001567E+02  0.86611001567E+02  0.00000000000E+00 0. -1.
         21   -1    0    0  501  502 -0.00000000000E+00 -0.00000000000E+00 -0.18809595002E+02  0.18809595002E+02  0.00000000000E+00 0.  1.
         21    1    1    2  503  502 -0.15255029749E+02 -0.29548605237E+02  0.40271377663E+01  0.33497072150E+02  0.00000000000E+00 0.  1.
         21    1    1    2  504  503  0.15255029749E+02  0.29548605237E+02  0.63774268798E+02  0.71923524419E+02  0.00000000000E+00 0. -1.
<mgrwt>
<rscale>  2 0.33254113E+02</rscale>
<asrwt>0</asrwt>
<pdfrwt beam="1">  1       21 0.13324769E-01 0.33254113E+02</pdfrwt>
<pdfrwt beam="2">  1       21 0.28937839E-02 0.33254113E+02</pdfrwt>
<totfact> 0.26319609E+07</totfact>
</mgrwt>
</event>
<event>
 4    1  0.4353697E+006  0.2205716E+02  0.7546771E-02  0.1707265E+00
         21   -1    0    0  504  501  0.00000000000E+00  0.00000000000E+00  0.60040402703E+01  0.60040402703E+01  0.00000000000E+00 0. -1.
         21   -1    0    0  501  502 -0.00000000000E+00 -0.00000000000E+00 -0.11385936154E+03  0.11385936154E+03  0.00000000000E+00 0.  1.
         21    1    1    2  503  502 -0.16681134999E+02  0.14431143460E+02 -0.86108070398E+02  0.88888232934E+02  0.00000000000E+00 0.  1.
         21    1    1    2  504  503  0.16681134999E+02 -0.14431143460E+02 -0.21747250872E+02  0.30975168876E+02  0.00000000000E+00 0. -1.
<mgrwt>
<rscale>  2 0.22057157E+02</rscale>
<asrwt>0</asrwt>
<pdfrwt beam="1">  1       21 0.92369853E-03 0.22057157E+02</pdfrwt>
<pdfrwt beam="2">  1       21 0.17516824E-01 0.22057157E+02</pdfrwt>
<totfact> 0.86322730E+07</totfact>
</mgrwt>
</event>
<event>
 4    1  0.4353697E+006  0.2155332E+02  0.7546771E-02  0.1716094E+00
         21   -1    0    0  503  501  0.00000000000E+00  0.00000000000E+00  0.12805797126E+02  0.12805797126E+02  0.00000000000E+00 0. -1.
         21   -1    0    0  504  502 -0.00000000000E+00 -0.00000000000E+00 -0.78274217141E+03  0.78274217141E+03  0.00000000000E+00 0. -1.
         21    1    1    2  503  502 -0.88662661248E+01 -0.19645222224E+02  0.34790363062E+01  0.21832295456E+02  0.00000000000E+00 0. -1.
         21    1    1    2  504  501  0.88662661248E+01  0.19645222224E+02 -0.77341541059E+03  0.77371567308E+03  0.00000000000E+00 0. -1.
<mgrwt>
<rscale>  2 0.21553316E+02</rscale>
<asrwt>0</asrwt>
<pdfrwt beam="1">  1       21 0.19701229E-02 0.21553316E+02</pdfrwt>
<pdfrwt beam="2">  1       21 0.12042186E+00 0.21553316E+02</pdfrwt>
<totfact> 0.64852403E+05</totfact>
</mgrwt>
</event>
<event>
 4    1  0.4353697E+006  0.2126496E+02  0.7546771E-02  0.1721283E+00
         21   -1    0    0  502  501  0.00000000000E+00  0.00000000000E+00  0.50185667935E+02  0.50185667935E+02  0.00000000000E+00 0.  1.
         21   -1    0    0  504  502 -0.00000000000E+00 -0.00000000000E+00 -0.23700380376E+02  0.23700380376E+02  0.00000000000E+00 0. -1.
         21    1    1    2  503  501 -0.13679291677E+02 -0.16281134464E+02  0.42327290823E+02  0.47368744005E+02  0.00000000000E+00 0.  1.
         21    1    1    2  504  503  0.13679291677E+02  0.16281134464E+02 -0.15842003264E+02  0.26517304306E+02  0.00000000000E+00 0. -1.
<mgrwt>
<rscale>  2 0.21264956E+02</rscale>
<asrwt>0</asrwt>
<pdfrwt beam="1">  1       21 0.77208719E-02 0.21264956E+02</pdfrwt>
<pdfrwt beam="2">  1       21 0.36462124E-02 0.21264956E+02</pdfrwt>
<totfact> 0.41153138E+07</totfact>
</mgrwt>
</event>
<event>
 4    1  0.4353697E+006  0.2364392E+02  0.7546771E-02  0.1681280E+00
         21   -1    0    0  503  501  0.00000000000E+00  0.00000000000E+00  0.11441487832E+03  0.11441487832E+03  0.00000000000E+00 0. -1.
         21   -1    0    0  504  502 -0.00000000000E+00 -0.00000000000E+00 -0.11751261462E+02  0.11751261462E+02  0.00000000000E+00 0. -1.
         21    1    1    2  503  502 -0.28944729240E+01 -0.23466082012E+02  0.31150463526E+01  0.23848238767E+02  0.00000000000E+00 0. -1.
         21    1    1    2  504  501  0.28944729240E+01  0.23466082012E+02  0.99548570508E+02  0.10231790102E+03  0.00000000000E+00 0. -1.
<mgrwt>
<rscale>  2 0.23643921E+02</rscale>
<asrwt>0</asrwt>
<pdfrwt beam="1">  1       21 0.17602288E-01 0.23643921E+02</pdfrwt>
<pdfrwt beam="2">  1       21 0.18078865E-02 0.23643921E+02</pdfrwt>
<totfact> 0.31545707E+07</totfact>
</mgrwt>
</event>
<event>
 4    1  0.4353697E+006  0.2381613E+02  0.7546771E-02  0.1678612E+00
         21   -1    0    0  504  501  0.00000000000E+00  0.00000000000E+00  0.10981358037E+02  0.10981358037E+02  0.00000000000E+00 0.  1.
         21   -1    0    0  501  502 -0.00000000000E+00 -0.00000000000E+00 -0.70159830592E+03  0.70159830592E+03  0.00000000000E+00 0.  1.
         21    1    1    2  503  502 -0.10569550496E+02 -0.21342276892E+02 -0.68823251313E+03  0.68864446582E+03  0.00000000000E+00 0.  1.
         21    1    1    2  504  503  0.10569550496E+02  0.21342276892E+02 -0.23844347537E+01  0.23935198135E+02  0.00000000000E+00 0.  1.
<mgrwt>
<rscale>  2 0.23816133E+02</rscale>
<asrwt>0</asrwt>
<pdfrwt beam="1">  1       21 0.16894390E-02 0.23816133E+02</pdfrwt>
<pdfrwt beam="2">  1       21 0.10793825E+00 0.23816133E+02</pdfrwt>
<totfact> 0.10558214E+06</totfact>
</mgrwt>
</event>
<event>
 4    1  0.4353697E+006  0.2459079E+02  0.7546771E-02  0.1666950E+00
         21   -1    0    0  502  501  0.00000000000E+00  0.00000000000E+00  0.22013840749E+02  0.22013840749E+02  0.00000000000E+00 0. -1.
         21   -1    0    0  504  502 -0.00000000000E+00 -0.00000000000E+00 -0.57269308849E+02  0.57269308849E+02  0.00000000000E+00 0.  1.
         21    1    1    2  503  501  0.13182435967E+02  0.20758866752E+02  0.10967742568E+02  0.26925796997E+02  0.00000000000E+00 0. -1.
         21    1    1    2  504  503 -0.13182435967E+02 -0.20758866752E+02 -0.46223210668E+02  0.52357352601E+02  0.00000000000E+00 0.  1.
<mgrwt>
<rscale>  2 0.24590794E+02</rscale>
<asrwt>0</asrwt>
<pdfrwt beam="1">  1       21 0.33867447E-02 0.24590794E+02</pdfrwt>
<pdfrwt beam="2">  1       21 0.88106629E-02 0.24590794E+02</pdfrwt>
<totfact> 0.38615832E+07</totfact>
</mgrwt>
</event>
<event>
 4    1  0.4353697E+006  0.2220924E+02  0.7546771E-02  0.1704658E+00
         21   -1    0    0  503  501  0.00000000000E+00  0.00000000000E+00  0.50948166482E+03  0.50948166482E+03  0.00000000000E+00 0.  1.
         21   -1    0    0  504  502 -0.00000000000E+00 -0.00000000000E+00 -0.14189730527E+02  0.14189730527E+02  0.00000000000E+00 0. -1.
         21    1    1    2  503  502  0.40537699642E+01 -0.21836146028E+02 -0.50996363217E+01  0.22787202876E+02  0.00000000000E+00 0. -1.
         21    1    1    2  504  501 -0.40537699642E+01  0.21836146028E+02  0.50039157062E+03  0.50088419247E+03  0.00000000000E+00 0.  1.
<mgrwt>
<rscale>  2 0.22209240E+02</rscale>
<asrwt>0</asrwt>
<pdfrwt beam="1">  1       21 0.78381781E-01 0.22209240E+02</pdfrwt>
<pdfrwt beam="2">  1       21 0.21830359E-02 0.22209240E+02</pdfrwt>
<totfact> 0.14105326E+06</totfact>
</mgrwt>
</event>
<event>
 4    1  0.4353697E+006  0.2307688E+02  0.7546771E-02  0.1690267E+00
         21   -1    0    0  502  501  0.00000000000E+00  0.00000000000E+00  0.25106124034E+02  0.25106124034E+02  0.00000000000E+00 0.  1.
         21   -1    0    0  504  502 -0.00000000000E+00 -0.00000000000E+00 -0.57011252405E+02  0.57011252405E+02  0.00000000000E+00 0.  1.
         21    1    1    2  503  501 -0.76973639090E+01 -0.21755295562E+02  0.16583415309E+02  0.28417458708E+02  0.00000000000E+00 0.  1.
         21    1    1    2  504  503  0.76973639090E+01  0.21755295562E+02 -0.48488543680E+02  0.53699917731E+02  0.00000000000E+00 0.  1.
<mgrwt>
<rscale>  2 0.23076878E+02</rscale>
<asrwt>0</asrwt>
<pdfrwt beam="1">  1       21 0.38624806E-02 0.23076878E+02</pdfrwt>
<pdfrwt beam="2">  1       21 0.87709618E-02 0.23076878E+02</pdfrwt>
<totfact> 0.31160774E+07</totfact>
</mgrwt>
</event>
<event>
 4    1  0.4353697E+006  0.2017619E+02  0.7546771E-02  0.1741847E+00
         21   -1    0    0  504  501  0.00000000000E+00  0.00000000000E+00  0.47108275246E+03  0.47108275246E+03  0.00000000000E+00 0.  1.
         21   -1    0    0  503  502 -0.00000000000E+00 -0.00000000000E+00 -0.20475112552E+01  0.20475112552E+01  0.00000000000E+00 0. -1.
         21    1    1    2  503  501  0.18536024011E+02 -0.79683412906E+01  0.54672283266E+02  0.58276386355E+02  0.00000000000E+00 0. -1.
         21    1    1    2  504  502 -0.18536024011E+02  0.79683412906E+01  0.41436295794E+03  0.41485387736E+03  0.00000000000E+00 0.  1.
<mgrwt>
<rscale>  2 0.20176190E+02</rscale>
<asrwt>0</asrwt>
<pdfrwt beam="1">  1       21 0.72474183E-01 0.20176190E+02</pdfrwt>
<pdfrwt beam="2">  1       21 0.31500211E-03 0.20176190E+02</pdfrwt>
<totfact> 0.29295634E+07</totfact>
</mgrwt>
</event>
<event>
 4    1  0.4353697E+006  0.2117344E+02  0.7546771E-02  0.1722952E+00
         21   -1    0    0  502  501  0.00000000000E+00  0.00000000000E+00  0.59376684231E+03  0.59376684231E+03  0.00000000000E+00 0.  1.
         21   -1    0    0  504  502 -0.00000000000E+00 -0.00000000000E+00 -0.11490191731E+02  0.11490191731E+02  0.00000000000E+00 0.  1.
         21    1    1    2  503  501  0.87008534234E+01  0.19303103432E+02  0.58365485320E+03  0.58403878494E+03  0.00000000000E+00 0.  1.
         21    1    1    2  504  503 -0.87008534234E+01 -0.19303103432E+02 -0.13782026209E+01  0.21218249100E+02  0.00000000000E+00 0.  1.
<mgrwt>
<rscale>  2 0.21173442E+02</rscale>
<asrwt>0</asrwt>
<pdfrwt beam="1">  1       21 0.91348721E-01 0.21173442E+02</pdfrwt>
<pdfrwt beam="2">  1       21 0.17677223E-02 0.21173442E+02</pdfrwt>
<totfact> 0.14028237E+06</totfact>
</mgrwt>
</event>
<event>
 4    1  0.4353697E+006  0.2445510E+02  0.7546771E-02  0.1668954E+00
         21   -1    0    0  503  501  0.00000000000E+00  0.00000000000E+00  0.13465346519E+02  0.13465346519E+02  0.00000000000E+00 0.  1.
         21   -1    0    0  504  502 -0.00000000000E+00 -0.00000000000E+00 -0.44595191889E+02  0.44595191889E+02  0.00000000000E+00 0. -1.
         21    1    1    2  503  502  0.24364535976E+02 -0.21026779912E+01 -0.13715223022E+02  0.28038530821E+02  0.00000000000E+00 0. -1.
         21    1    1    2  504  501 -0.24364535976E+02  0.21026779912E+01 -0.17414622348E+02  0.30022007587E+02  0.00000000000E+00 0.  1.
<mgrwt>
<rscale>  2 0.24455099E+02</rscale>
<asrwt>0</asrwt>
<pdfrwt beam="1">  1       21 0.20715917E-02 0.24455099E+02</pdfrwt>
<pdfrwt beam="2">  1       21 0.68607988E-02 0.24455099E+02</pdfrwt>
<totfact> 0.12453882E+08</totfact>
</mgrwt>
</event>
<event>
 4    1  0.4353697E+006  0.2649801E+02  0.7546771E-02  0.1640373E+00
         21   -1    0    0  503  501  0.00000000000E+00  0.00000000000E+00  0.16341658755E+02  0.16341658755E+02  0.00000000000E+00 0. -1.
         21   -1    0    0  501  502 -0.00000000000E+00 -0.00000000000E+00 -0.68320155214E+02  0.68320155214E+02  0.00000000000E+00 0. -1.
         21    1    1    2  503  504  0.26495565022E+02  0.35997095458E+00 -0.20211324510E+00  0.26498781004E+02  0.00000000000E+00 0. -1.
         21    1    1    2  504  502 -0.26495565022E+02 -0.35997095458E+00 -0.51776383215E+02  0.58163032965E+02  0.00000000000E+00 0. -1.
<mgrwt>
<rscale>  2 0.26498010E+02</rscale>
<asrwt>0</asrwt>
<pdfrwt beam="1">  1       21 0.25141013E-02 0.26498010E+02</pdfrwt>
<pdfrwt beam="2">  1       21 0.10510793E-01 0.26498010E+02</pdfrwt>
<totfact> 0.46704601E+07</totfact>
</mgrwt>
</event>
<event>
 4    1  0.4353697E+006  0.2379230E+02  0.7546771E-02  0.1678980E+00
         21   -1    0    0  504  501  0.00000000000E+00  0.00000000000E+00  0.46885757957E+02  0.46885757957E+02  0.00000000000E+00 0. -1.
         21   -1    0    0  503  502 -0.00000000000E+00 -0.00000000000E+00 -0.69074647904E+02  0.69074647904E+02  0.00000000000E+00 0. -1.
         21    1    1    2  503  501  0.23414161509E+02  0.42249781863E+01 -0.63764326095E+02  0.68058523949E+02  0.00000000000E+00 0. -1.
         21    1    1    2  504  502 -0.23414161509E+02 -0.42249781863E+01  0.41575436148E+02  0.47901881912E+02  0.00000000000E+00 0. -1.
<mgrwt>
<rscale>  2 0.23792297E+02</rscale>
<asrwt>0</asrwt>
<pdfrwt beam="1">  1       21 0.72131935E-02 0.23792297E+02</pdfrwt>
<pdfrwt beam="2">  1       21 0.10626869E-01 0.23792297E+02</pdfrwt>
<totfact> 0.84202157E+06</totfact>
</mgrwt>
</event>
<event>
 4    1  0.4353697E+006  0.2468602E+02  0.7546771E-02  0.1665553E+00
         21   -1    0    0  503  501  0.00000000000E+00  0.00000000000E+00  0.47082598377E+00  0.47082598377E+00  0.00000000000E+00 0.  1.
         21   -1    0    0  504  502 -0.00000000000E+00 -0.00000000000E+00 -0.21362354554E+04  0.21362354554E+04  0.00000000000E+00 0.  1.
         21    1    1    2  503  502 -0.24352215695E+02 -0.40458955749E+01 -0.17385762928E+04  0.17387515422E+04  0.00000000000E+00 0.  1.
         21    1    1    2  504  501  0.24352215695E+02  0.40458955749E+01 -0.39718833659E+03  0.39795473913E+03  0.00000000000E+00 0.  1.
<mgrwt>
<rscale>  2 0.24686022E+02</rscale>
<asrwt>0</asrwt>
<pdfrwt beam="1">  1       21 0.72432396E-04 0.24686022E+02</pdfrwt>
<pdfrwt beam="2">  1       21 0.32866236E+00 0.24686022E+02</pdfrwt>
<totfact> 0.55696595E+06</totfact>
</mgrwt>
</event>
<event>
 4    1  0.4353697E+006  0.2154818E+02  0.7546771E-02  0.1716185E+00
         21   -1    0    0  502  501  0.00000000000E+00  0.00000000000E+00  0.20609274570E+02  0.20609274570E+02  0.00000000000E+00 0. -1.
         21   -1    0    0  503  502 -0.00000000000E+00 -0.00000000000E+00 -0.25436758477E+02  0.25436758477E+02  0.00000000000E+00 0. -1.
         21    1    1    2  503  504  0.17819553548E+02 -0.12115593045E+02 -0.10196727575E+02  0.23838987745E+02  0.00000000000E+00 0. -1.
         21    1    1    2  504  501 -0.17819553548E+02  0.12115593045E+02  0.53692436676E+01  0.22207045302E+02  0.00000000000E+00 0. -1.
<mgrwt>
<rscale>  2 0.21548181E+02</rscale>
<asrwt>0</asrwt>
<pdfrwt beam="1">  1       21 0.31706576E-02 0.21548181E+02</pdfrwt>
<pdfrwt beam="2">  1       21 0.39133474E-02 0.21548181E+02</pdfrwt>
<totfact> 0.15189777E+08</totfact>
</mgrwt>
</event>
<event>
 4    1  0.4353697E+006  0.2452697E+02  0.7546771E-02  0.1667891E+00
         21   -1    0    0  504  501  0.00000000000E+00  0.00000000000E+00  0.10475999808E+01  0.10475999808E+01  0.00000000000E+00 0.  1.
         21   -1    0    0  503  502 -0.00000000000E+00 -0.00000000000E+00 -0.66840917244E+03  0.66840917244E+03  0.00000000000E+00 0.  1.
         21    1    1    2  503  501  0.24224384952E+02 -0.38407806067E+01 -0.20804053911E+03  0.20948135558E+03  0.00000000000E+00 0.  1.
         21    1    1    2  504  502 -0.24224384952E+02  0.38407806067E+01 -0.45932103334E+03  0.45997541684E+03  0.00000000000E+00 0.  1.
<mgrwt>
<rscale>  2 0.24526973E+02</rscale>
<asrwt>0</asrwt>
<pdfrwt beam="1">  1       21 0.16116954E-03 0.24526973E+02</pdfrwt>
<pdfrwt beam="2">  1       21 0.10283198E+00 0.24526973E+02</pdfrwt>
<totfact> 0.38273929E+07</totfact>
</mgrwt>
</event>
<event>
 4    1  0.4353697E+006  0.2081608E+02  0.7546771E-02  0.1729570E+00
         21   -1    0    0  503  501  0.00000000000E+00  0.00000000000E+00  0.35518796765E+03  0.35518796765E+03  0.00000000000E+00 0.  1.
         21   -1    0    0  504  502 -0.00000000000E+00 -0.00000000000E+00 -0.17646962993E+01  0.17646962993E+01  0.00000000000E+00 0.  1.
         21    1    1    2  503  502 -0.14747909964E+02 -0.14690415529E+02  0.77549587827E+02  0.80294755301E+02  0.00000000000E+00 0.  1.
         21    1    1    2  504  501  0.14747909964E+02  0.14690415529E+02  0.27587368353E+03  0.27665790865E+03  0.00000000000E+00 0.  1.
<mgrwt>
<rscale>  2 0.20816079E+02</rscale>
<asrwt>0</asrwt>
<pdfrwt beam="1">  1       21 0.54644246E-01 0.20816079E+02</pdfrwt>
<pdfrwt beam="2">  1       21 0.27149202E-03 0.20816079E+02</pdfrwt>
<totfact> 0.64494518E+07</totfact>
</mgrwt>
</event>
<event>
 4    1  0.4353697E+006  0.2003139E+02  0.7546771E-02  0.1744705E+00
         21   -1    0    0  504  501  0.00000000000E+00  0.00000000000E+00  0.32498506437E+02  0.32498506437E+02  0.00000000000E+00 0.  1.
         21   -1    0    0  503  502 -0.00000000000E+00 -0.00000000000E+00 -0.26490147622E+02  0.26490147622E+02  0.00000000000E+00 0.  1.
         21    1    1    2  503  501  0.79318448775E+00  0.20015675083E+02 -0.18546978048E+02  0.27299208512E+02  0.00000000000E+00 0.  1.
         21    1    1    2  504  502 -0.79318448775E+00 -0.20015675083E+02  0.24555336863E+02  0.31689445547E+02  0.00000000000E+00 0.  1.
<mgrwt>
<rscale>  2 0.20031385E+02</rscale>
<asrwt>0</asrwt>
<pdfrwt beam="1">  1       21 0.49997702E-02 0.20031385E+02</pdfrwt>
<pdfrwt beam="2">  1       21 0.40754073E-02 0.20031385E+02</pdfrwt>
<totfact> 0.68238425E+07</totfact>
</mgrwt>
</event>
<event>
 4    1  0.4353697E+006  0.2831826E+02  0.7546771E-02  0.1617458E+00
         21   -1    0    0  503  501  0.00000000000E+00  0.00000000000E+00  0.25540419057E+01  0.25540419057E+01  0.00000000000E+00 0. -1.
         21   -1    0    0  504  502 -0.00000000000E+00 -0.00000000000E+00 -0.31849542568E+03  0.31849542568E+03  0.00000000000E+00 0. -1.
         21    1    1    2  503  502 -0.44273885541E+01  0.27970025476E+02 -0.17707918256E+03  0.17932919726E+03  0.00000000000E+00 0. -1.
         21    1    1    2  504  501  0.44273885541E+01 -0.27970025476E+02 -0.13886220122E+03  0.14172027033E+03  0.00000000000E+00 0. -1.
<mgrwt>
<rscale>  2 0.28318264E+02</rscale>
<asrwt>0</asrwt>
<pdfrwt beam="1">  1       21 0.39292943E-03 0.28318264E+02</pdfrwt>
<pdfrwt beam="2">  1       21 0.48999308E-01 0.28318264E+02</pdfrwt>
<totfact> 0.49923224E+07</totfact>
</mgrwt>
</event>
<event>
 4    1  0.4353697E+006  0.2217914E+02  0.7546771E-02  0.1705172E+00
         21   -1    0    0  502  501  0.00000000000E+00  0.00000000000E+00  0.66029978738E+02  0.66029978738E+02  0.00000000000E+00 0. -1.
         21   -1    0    0  503  502 -0.00000000000E+00 -0.00000000000E+00 -0.36510765048E+02  0.36510765048E+02  0.00000000000E+00 0. -1.
         21    1    1    2  503  504 -0.12059293802E+02  0.18614180321E+02 -0.30981908555E+02  0.38102400629E+02  0.00000000000E+00 0. -1.
         21    1    1    2  504  501  0.12059293802E+02 -0.18614180321E+02  0.60501122244E+02  0.64438343157E+02  0.00000000000E+00 0. -1.
<mgrwt>
<rscale>  2 0.22179141E+02</rscale>
<asrwt>0</asrwt>
<pdfrwt beam="1">  1       21 0.10158458E-01 0.22179141E+02</pdfrwt>
<pdfrwt beam="2">  1       21 0.56170408E-02 0.22179141E+02</pdfrwt>
<totfact> 0.13389415E+07</totfact>
</mgrwt>
</event>
<event>
 4    1  0.4353697E+006  0.2008702E+02  0.7546771E-02  0.1743603E+00
         21   -1    0    0  504  501  0.00000000000E+00  0.00000000000E+00  0.22040251640E+02  0.22040251640E+02  0.00000000000E+00 0.  1.
         21   -1    0    0  503  502 -0.00000000000E+00 -0.00000000000E+00 -0.20680008598E+02  0.20680008598E+02  0.00000000000E+00 0.  1.
         21    1    1    2  503  501 -0.19648425064E+02 -0.41746555339E+01  0.79159572395E+01  0.21590524202E+02  0.00000000000E+00 0.  1.
         21    1    1    2  504  502  0.19648425064E+02  0.41746555339E+01 -0.65557141966E+01  0.21129736036E+02  0.00000000000E+00 0.  1.
<mgrwt>
<rscale>  2 0.20087020E+02</rscale>
<asrwt>0</asrwt>
<pdfrwt beam="1">  1       21 0.33908079E-02 0.20087020E+02</pdfrwt>
<pdfrwt beam="2">  1       21 0.31815398E-02 0.20087020E+02</pdfrwt>
<totfact> 0.18486999E+08</totfact>
</mgrwt>
</event>
<event>
 4    1  0.4353697E+006  0.2087424E+02  0.7546771E-02  0.1728481E+00
         21   -1    0    0  502  501  0.00000000000E+00  0.00000000000E+00  0.35113533137E+03  0.35113533137E+03  0.00000000000E+00 0.  1.
         21   -1    0    0  504  502 -0.00000000000E+00 -0.00000000000E+00 -0.13767652073E+01  0.13767652073E+01  0.00000000000E+00 0.  1.
         21    1    1    2  503  501 -0.44280783778E+01  0.20399169210E+02  0.23024258854E+03  0.23118690179E+03  0.00000000000E+00 0.  1.
         21    1    1    2  504  503  0.44280783778E+01 -0.20399169210E+02  0.11951597762E+03  0.12132519479E+03  0.00000000000E+00 0.  1.
<mgrwt>
<rscale>  2 0.20874242E+02</rscale>
<asrwt>0</asrwt>
<pdfrwt beam="1">  1       21 0.54020749E-01 0.20874242E+02</pdfrwt>
<pdfrwt beam="2">  1       21 0.21181031E-03 0.20874242E+02</pdfrwt>
<totfact> 0.94487944E+07</totfact>
</mgrwt>
</event>
<event>
 4    1  0.4353697E+006  0.2706647E+02  0.7546771E-02  0.1632980E+00
         21   -1    0    0  503  501  0.00000000000E+00  0.00000000000E+00  0.44240811001E+02  0.44240811001E+02  0.00000000000E+00 0. -1.
         21   -1    0    0  504  502 -0.00000000000E+00 -0.00000000000E+00 -0.27074576524E+02  0.27074576524E+02  0.00000000000E+00 0. -1.
         21    1    1    2  503  502 -0.26465601402E+02 -0.56714739111E+01  0.30805173945E+02  0.41006736223E+02  0.00000000000E+00 0. -1.
         21    1    1    2  504  501  0.26465601402E+02  0.56714739111E+01 -0.13638939469E+02  0.30308651302E+02  0.00000000000E+00 0. -1.
<mgrwt>
<rscale>  2 0.27066468E+02</rscale>
<asrwt>0</asrwt>
<pdfrwt beam="1">  1       21 0.68062786E-02 0.27066468E+02</pdfrwt>
<pdfrwt beam="2">  1       21 0.41653195E-02 0.27066468E+02</pdfrwt>
<totfact> 0.43443499E+07</totfact>
</mgrwt>
</event>
<event>
 4    1  0.4353697E+006  0.2584100E+02  0.7546771E-02  0.1649208E+00
         21   -1    0    0  503  501  0.00000000000E+00  0.00000000000E+00  0.62699603662E+02  0.62699603662E+02  0.00000000000E+00 0.  1.
         21   -1    0    0  501  502 -0.00000000000E+00 -0.00000000000E+00 -0.15992455273E+02  0.15992455273E+02  0.00000000000E+00 0. -1.
         21    1    1    2  503  504 -0.15697741971E+02 -0.20526527883E+02  0.46094569232E+02  0.52843795876E+02  0.00000000000E+00 0.  1.
         21    1    1    2  504  502  0.15697741971E+02  0.20526527883E+02  0.61257915737E+00  0.25848263059E+02  0.00000000000E+00 0. -1.
<mgrwt>
<rscale>  2 0.25841003E+02</rscale>
<asrwt>0</asrwt>
<pdfrwt beam="1">  1       21 0.96460928E-02 0.25841003E+02</pdfrwt>
<pdfrwt beam="2">  1       21 0.24603778E-02 0.25841003E+02</pdfrwt>
<totfact> 0.55383907E+07</totfact>
</mgrwt>
</event>
<event>
 4    1  0.4353697E+006  0.2133597E+02  0.7546771E-02  0.1719996E+00
         21   -1    0    0  503  501  0.00000000000E+00  0.00000000000E+00  0.27739157491E+02  0.27739157491E+02  0.00000000000E+00 0.  1.
         21   -1    0    0  504  502 -0.00000000000E+00 -0.00000000000E+00 -0.20930727754E+02  0.20930727754E+02  0.00000000000E+00 0.  1.
         21    1    1    2  503  502 -0.21214539418E+02  0.22731123738E+01  0.14712598144E+02  0.25916872240E+02  0.00000000000E+00 0.  1.
         21    1    1    2  504  501  0.21214539418E+02 -0.22731123738E+01 -0.79041684068E+01  0.22753013004E+02  0.00000000000E+00 0.  1.
<mgrwt>
<rscale>  2 0.21335973E+02</rscale>
<asrwt>0</asrwt>
<pdfrwt beam="1">  1       21 0.42675627E-02 0.21335973E+02</pdfrwt>
<pdfrwt beam="2">  1       21 0.32201120E-02 0.21335973E+02</pdfrwt>
<totfact> 0.12899798E+08</totfact>
</mgrwt>
</event>
<event>
 4    1  0.4353697E+006  0.2892226E+02  0.7546771E-02  0.1610317E+00
         21   -1    0    0  503  501  0.00000000000E+00  0.00000000000E+00  0.61368174729E+02  0.61368174729E+02  0.00000000000E+00 0. -1.
         21   -1    0    0  504  502 -0.00000000000E+00 -0.00000000000E+00 -0.14743273067E+02  0.14743273067E+02  0.00000000000E+00 0. -1.
         21    1    1    2  503  502 -0.11847324175E+02  0.26384427280E+02  0.33766113826E+02  0.44459504450E+02  0.00000000000E+00 0. -1.
         21    1    1    2  504  501  0.11847324175E+02 -0.26384427280E+02  0.12858787836E+02  0.31651943346E+02  0.00000000000E+00 0. -1.
<mgrwt>
<rscale>  2 0.28922259E+02</rscale>
<asrwt>0</asrwt>
<pdfrwt beam="1">  1       21 0.94412576E-02 0.28922259E+02</pdfrwt>
<pdfrwt beam="2">  1       21 0.22681959E-02 0.28922259E+02</pdfrwt>
<totfact> 0.66917887E+07</totfact>
</mgrwt>
</event>
<event>
 4    1  0.4353697E+006  0.2006456E+02  0.7546771E-02  0.1744047E+00
         21   -1    0    0  503  501  0.00000000000E+00  0.00000000000E+00  0.15519830601E+03  0.15519830601E+03  0.00000000000E+00 0.  1.
         21   -1    0    0  504  502 -0.00000000000E+00 -0.00000000000E+00 -0.85951931208E+01  0.85951931208E+01  0.00000000000E+00 0.  1.
         21    1    1    2  503  502  0.17444574203E+02  0.99132917288E+01  0.14173322882E+03  0.14314640992E+03  0.00000000000E+00 0.  1.
         21    1    1    2  504  501 -0.17444574203E+02 -0.99132917288E+01  0.48698840730E+01  0.20647089212E+02  0.00000000000E+00 0.  1.
<mgrwt>
<rscale>  2 0.20064559E+02</rscale>
<asrwt>0</asrwt>
<pdfrwt beam="1">  1       21 0.23876660E-01 0.20064559E+02</pdfrwt>
<pdfrwt beam="2">  1       21 0.13223375E-02 0.20064559E+02</pdfrwt>
<totfact> 0.28658162E+07</totfact>
</mgrwt>
</event>
<event>
 4    1  0.4353697E+006  0.2792133E+02  0.7546771E-02  0.1622272E+00
         21   -1    0    0  504  501  0.00000000000E+00  0.00000000000E+00  0.56858752458E+02  0.56858752458E+02  0.00000000000E+00 0.  1.
         21   -1    0    0  503  502 -0.00000000000E+00 -0.00000000000E+00 -0.13727707181E+02  0.13727707181E+02  0.00000000000E+00 0.  1.
         21    1    1    2  503  501  0.24252005444E+02  0.13836226211E+02  0.22789897868E+02  0.36041370238E+02  0.00000000000E+00 0.  1.
         21    1    1    2  504  502 -0.24252005444E+02 -0.13836226211E+02  0.20341147409E+02  0.34545089401E+02  0.00000000000E+00 0.  1.
<mgrwt>
<rscale>  2 0.27921335E+02</rscale>
<asrwt>0</asrwt>
<pdfrwt beam="1">  1       21 0.87475003E-02 0.27921335E+02</pdfrwt>
<pdfrwt beam="2">  1       21 0.21119550E-02 0.27921335E+02</pdfrwt>
<totfact> 0.84100103E+07</totfact>
</mgrwt>
</event>
<event>
 4    1  0.4353697E+006  0.4281340E+02  0.7546771E-02  0.1488473E+00
         21   -1    0    0  502  501  0.00000000000E+00  0.00000000000E+00  0.89617864756E+03  0.89617864756E+03  0.00000000000E+00 0.  1.
         21   -1    0    0  503  502 -0.00000000000E+00 -0.00000000000E+00 -0.37975974055E+01  0.37975974055E+01  0.00000000000E+00 0. -1.
         21    1    1    2  503  504 -0.40971628586E+02 -0.12422264378E+02  0.14052535034E+03  0.14690255644E+03  0.00000000000E+00 0. -1.
         21    1    1    2  504  501  0.40971628586E+02  0.12422264378E+02  0.75185569981E+03  0.75307368852E+03  0.00000000000E+00 0.  1.
<mgrwt>
<rscale>  2 0.42813397E+02</rscale>
<asrwt>0</asrwt>
<pdfrwt beam="1">  1       21 0.13787347E+00 0.42813397E+02</pdfrwt>
<pdfrwt beam="2">  1       21 0.58424647E-03 0.42813397E+02</pdfrwt>
<totfact> 0.31357988E+06</totfact>
</mgrwt>
</event>
<event>
 4    1  0.4353697E+006  0.2129491E+02  0.7546771E-02  0.1720739E+00
         21   -1    0    0  504  501  0.00000000000E+00  0.00000000000E+00  0.43536835179E+02  0.43536835179E+02  0.00000000000E+00 0. -1.
         21   -1    0    0  503  502 -0.00000000000E+00 -0.00000000000E+00 -0.17301085472E+02  0.17301085472E+02  0.00000000000E+00 0.  1.
         21    1    1    2  503  501 -0.25082457002E+01 -0.21146680544E+02  0.32307518432E+02  0.38694303738E+02  0.00000000000E+00 0. -1.
         21    1    1    2  504  502  0.25082457002E+01  0.21146680544E+02 -0.60717687257E+01  0.22143616913E+02  0.00000000000E+00 0.  1.
<mgrwt>
<rscale>  2 0.21294915E+02</rscale>
<asrwt>0</asrwt>
<pdfrwt beam="1">  1       21 0.66979746E-02 0.21294915E+02</pdfrwt>
<pdfrwt beam="2">  1       21 0.26617055E-02 0.21294915E+02</pdfrwt>
<totfact> 0.84506385E+07</totfact>
</mgrwt>
</event>
<event>
 4    1  0.4353697E+006  0.2993246E+02  0.7546771E-02  0.1598836E+00
         21   -1    0    0  504  501  0.00000000000E+00  0.00000000000E+00  0.12208841435E+03  0.12208841435E+03  0.00000000000E+00 0.  1.
         21   -1    0    0  503  502 -0.00000000000E+00 -0.00000000000E+00 -0.13245726097E+03  0.13245726097E+03  0.00000000000E+00 0. -1.
         21    1    1    2  503  501  0.24795708528E+02  0.16766785320E+02  0.11851252012E+03  0.12223407739E+03  0.00000000000E+00 0.  1.
         21    1    1    2  504  502 -0.24795708528E+02 -0.16766785320E+02 -0.12888136674E+03  0.13231159792E+03  0.00000000000E+00 0. -1.
<mgrwt>
<rscale>  2 0.29932461E+02</rscale>
<asrwt>0</asrwt>
<pdfrwt beam="1">  1       21 0.18782833E-01 0.29932461E+02</pdfrwt>
<pdfrwt beam="2">  1       21 0.20378040E-01 0.29932461E+02</pdfrwt>
<totfact> 0.56628158E+05</totfact>
</mgrwt>
</event>
<event>
 4    1  0.4353697E+006  0.2170361E+02  0.7546771E-02  0.1713429E+00
         21   -1    0    0  503  501  0.00000000000E+00  0.00000000000E+00  0.31491979221E+02  0.31491979221E+02  0.00000000000E+00 0.  1.
         21   -1    0    0  501  502 -0.00000000000E+00 -0.00000000000E+00 -0.15756939399E+02  0.15756939399E+02  0.00000000000E+00 0.  1.
         21    1    1    2  503  504  0.19040724251E+02  0.10416214904E+02  0.13188257578E+02  0.25396394446E+02  0.00000000000E+00 0.  1.
         21    1    1    2  504  502 -0.19040724251E+02 -0.10416214904E+02  0.25467822437E+01  0.21852524173E+02  0.00000000000E+00 0.  1.
<mgrwt>
<rscale>  2 0.21703611E+02</rscale>
<asrwt>0</asrwt>
<pdfrwt beam="1">  1       21 0.48449199E-02 0.21703611E+02</pdfrwt>
<pdfrwt beam="2">  1       21 0.24241445E-02 0.21703611E+02</pdfrwt>
<totfact> 0.16472713E+08</totfact>
</mgrwt>
</event>
<event>
 4    1  0.4353697E+006  0.3286999E+02  0.7546771E-02  0.1568372E+00
         21   -1    0    0  503  501  0.00000000000E+00  0.00000000000E+00  0.65137983774E+02  0.65137983774E+02  0.00000000000E+00 0. -1.
         21   -1    0    0  504  502 -0.00000000000E+00 -0.00000000000E+00 -0.34900034409E+02  0.34900034409E+02  0.00000000000E+00 0. -1.
         21    1    1    2  503  502 -0.28685989471E+02  0.16048374897E+02  0.51351921830E+02  0.60970945576E+02  0.00000000000E+00 0. -1.
         21    1    1    2  504  501  0.28685989471E+02 -0.16048374897E+02 -0.21113972465E+02  0.39067072606E+02  0.00000000000E+00 0. -1.
<mgrwt>
<rscale>  2 0.32869991E+02</rscale>
<asrwt>0</asrwt>
<pdfrwt beam="1">  1       21 0.10021228E-01 0.32869991E+02</pdfrwt>
<pdfrwt beam="2">  1       21 0.53692361E-02 0.32869991E+02</pdfrwt>
<totfact> 0.15865022E+07</totfact>
</mgrwt>
</event>
<event>
 4    1  0.4353697E+006  0.2758512E+02  0.7546771E-02  0.1626426E+00
         21   -1    0    0  504  501  0.00000000000E+00  0.00000000000E+00  0.26999510170E+02  0.26999510170E+02  0.00000000000E+00 0.  1.
         21   -1    0    0  501  502 -0.00000000000E+00 -0.00000000000E+00 -0.50987143425E+02  0.50987143425E+02  0.00000000000E+00 0.  1.
         21    1    1    2  503  502 -0.21249763552E+02  0.17589387708E+02 -0.38071119047E+02  0.47014350112E+02  0.00000000000E+00 0.  1.
         21    1    1    2  504  503  0.21249763552E+02 -0.17589387708E+02  0.14083485792E+02  0.30972303483E+02  0.00000000000E+00 0.  1.
<mgrwt>
<rscale>  2 0.27585123E+02</rscale>
<asrwt>0</asrwt>
<pdfrwt beam="1">  1       21 0.41537709E-02 0.27585123E+02</pdfrwt>
<pdfrwt beam="2">  1       21 0.78441757E-02 0.27585123E+02</pdfrwt>
<totfact> 0.34750318E+07</totfact>
</mgrwt>
</event>
<event>
 4    1  0.4353697E+006  0.2208523E+02  0.7546771E-02  0.1706782E+00
         21   -1    0    0  504  501  0.00000000000E+00  0.00000000000E+00  0.19514472962E+01  0.19514472962E+01  0.00000000000E+00 0. -1.
         21   -1    0    0  503  502 -0.00000000000E+00 -0.00000000000E+00 -0.49756861703E+03  0.49756861703E+03  0.00000000000E+00 0.  1.
         21    1    1    2  503  501 -0.21923672137E+02 -0.26664953382E+01 -0.71614595644E+02  0.74942697487E+02  0.00000000000E+00 0. -1.
         21    1    1    2  504  502  0.21923672137E+02  0.26664953382E+01 -0.42400257409E+03  0.42457736684E+03  0.00000000000E+00 0.  1.
<mgrwt>
<rscale>  2 0.22085235E+02</rscale>
<asrwt>0</asrwt>
<pdfrwt beam="1">  1       21 0.30022311E-03 0.22085235E+02</pdfrwt>
<pdfrwt beam="2">  1       21 0.76548904E-01 0.22085235E+02</pdfrwt>
<totfact> 0.28618125E+07</totfact>
</mgrwt>
</event>
<event>
 4    1  0.4353697E+006  0.3525835E+02  0.7546771E-02  0.1546318E+00
         21   -1    0    0  504  501  0.00000000000E+00  0.00000000000E+00  0.20562547896E+03  0.20562547896E+03  0.00000000000E+00 0. -1.
         21   -1    0    0  503  502 -0.00000000000E+00 -0.00000000000E+00 -0.20206993220E+03  0.20206993220E+03  0.00000000000E+00 0. -1.
         21    1    1    2  503  501 -0.35155970443E+02  0.26848947592E+01 -0.19899732865E+03  0.20209672864E+03  0.00000000000E+00 0. -1.
         21    1    1    2  504  502  0.35155970443E+02 -0.26848947592E+01  0.20255287541E+03  0.20559868252E+03  0.00000000000E+00 0. -1.
<mgrwt>
<rscale>  2 0.35258345E+02</rscale>
<asrwt>0</asrwt>
<pdfrwt beam="1">  1       21 0.31634689E-01 0.35258345E+02</pdfrwt>
<pdfrwt beam="2">  1       21 0.31087682E-01 0.35258345E+02</pdfrwt>
<totfact> 0.10310080E+05</totfact>
</mgrwt>
</event>
<event>
 4    1  0.4353697E+006  0.2852595E+02  0.7546771E-02  0.1614978E+00
         21   -1    0    0  504  501  0.00000000000E+00  0.00000000000E+00  0.77139491488E+01  0.77139491488E+01  0.00000000000E+00 0.  1.
         21   -1    0    0  503  502 -0.00000000000E+00 -0.00000000000E+00 -0.18491795356E+03  0.18491795356E+03  0.00000000000E+00 0.  1.
         21    1    1    2  503  501 -0.24645412034E+02  0.14364310977E+02 -0.15172688532E+03  0.15438515956E+03  0.00000000000E+00 0.  1.
         21    1    1    2  504  502  0.24645412034E+02 -0.14364310977E+02 -0.25477119093E+02  0.38246743148E+02  0.00000000000E+00 0.  1.
<mgrwt>
<rscale>  2 0.28525949E+02</rscale>
<asrwt>0</asrwt>
<pdfrwt beam="1">  1       21 0.11867616E-02 0.28525949E+02</pdfrwt>
<pdfrwt beam="2">  1       21 0.28448911E-01 0.28525949E+02</pdfrwt>
<totfact> 0.26632438E+07</totfact>
</mgrwt>
</event>
<event>
 4    1  0.4353697E+006  0.3051005E+02  0.7546771E-02  0.1592518E+00
         21   -1    0    0  504  501  0.00000000000E+00  0.00000000000E+00  0.83523070256E+01  0.83523070256E+01  0.00000000000E+00 0. -1.
         21   -1    0    0  503  502 -0.00000000000E+00 -0.00000000000E+00 -0.97309104263E+03  0.97309104263E+03  0.00000000000E+00 0.  1.
         21    1    1    2  503  501 -0.48075763251E+01 -0.30128900299E+02 -0.20603606197E+02  0.36815377381E+02  0.00000000000E+00 0. -1.
         21    1    1    2  504  502  0.48075763251E+01  0.30128900299E+02 -0.94413512940E+03  0.94462797227E+03  0.00000000000E+00 0.  1.
<mgrwt>
<rscale>  2 0.30510054E+02</rscale>
<asrwt>0</asrwt>
<pdfrwt beam="1">  1       21 0.12849711E-02 0.30510054E+02</pdfrwt>
<pdfrwt beam="2">  1       21 0.14970622E+00 0.30510054E+02</pdfrwt>
<totfact> 0.76401697E+05</totfact>
</mgrwt>
</event>
<event>
 4    1  0.4353697E+006  0.6933432E+02  0.7546771E-02  0.1362371E+00
         21   -1    0    0  504  501  0.00000000000E+00  0.00000000000E+00  0.56031940949E+02  0.56031940949E+02  0.00000000000E+00 0. -1.
         21   -1    0    0  503  502 -0.00000000000E+00 -0.00000000000E+00 -0.87473675645E+02  0.87473675645E+02  0.00000000000E+00 0. -1.
         21    1    1    2  503  501 -0.52611170956E+02  0.45158755027E+02 -0.25661433074E+02  0.73930762288E+02  0.00000000000E+00 0. -1.
         21    1    1    2  504  502  0.52611170956E+02 -0.45158755027E+02 -0.57803016222E+01  0.69574854307E+02  0.00000000000E+00 0. -1.
<mgrwt>
<rscale>  2 0.69334324E+02</rscale>
<asrwt>0</asrwt>
<pdfrwt beam="1">  1       21 0.86202986E-02 0.69334324E+02</pdfrwt>
<pdfrwt beam="2">  1       21 0.13457489E-01 0.69334324E+02</pdfrwt>
<totfact> 0.47667890E+06</totfact>
</mgrwt>
</event>
<event>
 4    1  0.4353697E+006  0.2414339E+02  0.7546771E-02  0.1673619E+00
         21   -1    0    0  502  501  0.00000000000E+00  0.00000000000E+00  0.41136267913E+03  0.41136267913E+03  0.00000000000E+00 0. -1.
         21   -1    0    0  503  502 -0.00000000000E+00 -0.00000000000E+00 -0.45475754034E+01  0.45475754034E+01  0.00000000000E+00 0.  1.
         21    1    1    2  503  504 -0.15822889244E+02  0.18235666085E+02  0.30866932119E+02  0.39187636316E+02  0.00000000000E+00 0.  1.
         21    1    1    2  504  501  0.15822889244E+02 -0.18235666085E+02  0.37594817161E+03  0.37672261822E+03  0.00000000000E+00 0. -1.
<mgrwt>
<rscale>  2 0.24143391E+02</rscale>
<asrwt>0</asrwt>
<pdfrwt beam="1">  1       21 0.63286537E-01 0.24143391E+02</pdfrwt>
<pdfrwt beam="2">  1       21 0.69962731E-03 0.24143391E+02</pdfrwt>
<totfact> 0.12377149E+07</totfact>
</mgrwt>
</event>
<event>
 4    1  0.4353697E+006  0.2070479E+02  0.7546771E-02  0.1731665E+00
         21   -1    0    0  503  501  0.00000000000E+00  0.00000000000E+00  0.88681930425E+03  0.88681930425E+03  0.00000000000E+00 0. -1.
         21   -1    0    0  501  502 -0.00000000000E+00 -0.00000000000E+00 -0.10161978192E+01  0.10161978192E+01  0.00000000000E+00 0. -1.
         21    1    1    2  503  504  0.36582172533E+01 -0.20379057023E+02  0.76433759452E+03  0.76461797450E+03  0.00000000000E+00 0. -1.
         21    1    1    2  504  502 -0.36582172533E+01  0.20379057023E+02  0.12146551191E+03  0.12321752758E+03  0.00000000000E+00 0. -1.
<mgrwt>
<rscale>  2 0.20704795E+02</rscale>
<asrwt>0</asrwt>
<pdfrwt beam="1">  1       21 0.13643312E+00 0.20704795E+02</pdfrwt>
<pdfrwt beam="2">  1       21 0.15633884E-03 0.20704795E+02</pdfrwt>
<totfact> 0.20436977E+07</totfact>
</mgrwt>
</event>
<event>
 4    1  0.4353697E+006  0.3610617E+02  0.7546771E-02  0.1538991E+00
         21   -1    0    0  504  501  0.00000000000E+00  0.00000000000E+00  0.11859191577E+02  0.11859191577E+02  0.00000000000E+00 0. -1.
         21   -1    0    0  503  502 -0.00000000000E+00 -0.00000000000E+00 -0.23658764251E+03  0.23658764251E+03  0.00000000000E+00 0. -1.
         21    1    1    2  503  501  0.35937722214E+02  0.34835957892E+01 -0.21471977267E+02  0.42008345900E+02  0.00000000000E+00 0. -1.
         21    1    1    2  504  502 -0.35937722214E+02 -0.34835957892E+01 -0.20325647367E+03  0.20643848819E+03  0.00000000000E+00 0. -1.
<mgrwt>
<rscale>  2 0.36106167E+02</rscale>
<asrwt>0</asrwt>
<pdfrwt beam="1">  1       21 0.18244911E-02 0.36106167E+02</pdfrwt>
<pdfrwt beam="2">  1       21 0.36398098E-01 0.36106167E+02</pdfrwt>
<totfact> 0.90419776E+06</totfact>
</mgrwt>
</event>
<event>
 4    1  0.4353697E+006  0.3197566E+02  0.7546771E-02  0.1577224E+00
         21   -1    0    0  504  501  0.00000000000E+00  0.00000000000E+00  0.43700000121E+02  0.43700000121E+02  0.00000000000E+00 0. -1.
         21   -1    0    0  503  502 -0.00000000000E+00 -0.00000000000E+00 -0.64660701737E+03  0.64660701737E+03  0.00000000000E+00 0.  1.
         21    1    1    2  503  501 -0.25270541988E+02 -0.19591895130E+02 -0.64030495873E+03  0.64110286446E+03  0.00000000000E+00 0.  1.
         21    1    1    2  504  502  0.25270541988E+02  0.19591895130E+02  0.37397941488E+02  0.49204153023E+02  0.00000000000E+00 0. -1.
<mgrwt>
<rscale>  2 0.31975657E+02</rscale>
<asrwt>0</asrwt>
<pdfrwt beam="1">  1       21 0.67230782E-02 0.31975657E+02</pdfrwt>
<pdfrwt beam="2">  1       21 0.99477985E-01 0.31975657E+02</pdfrwt>
<totfact> 0.14474295E+05</totfact>
</mgrwt>
</event>
<event>
 4    1  0.4353697E+006  0.2700446E+02  0.7546771E-02  0.1633775E+00
         21   -1    0    0  502  501  0.00000000000E+00  0.00000000000E+00  0.26663861332E+01  0.26663861332E+01  0.00000000000E+00 0.  1.
         21   -1    0    0  504  502 -0.00000000000E+00 -0.00000000000E+00 -0.56723441255E+03  0.56723441255E+03  0.00000000000E+00 0.  1.
         21    1    1    2  503  501  0.26454587175E+02 -0.54217535254E+01 -0.77229260739E+02  0.81814419928E+02  0.00000000000E+00 0.  1.
         21    1    1    2  504  503 -0.26454587175E+02  0.54217535254E+01 -0.48733876568E+03  0.48808637875E+03  0.00000000000E+00 0.  1.
<mgrwt>
<rscale>  2 0.27004455E+02</rscale>
<asrwt>0</asrwt>
<pdfrwt beam="1">  1       21 0.41021283E-03 0.27004455E+02</pdfrwt>
<pdfrwt beam="2">  1       21 0.87266923E-01 0.27004455E+02</pdfrwt>
<totfact> 0.14260633E+07</totfact>
</mgrwt>
</event>
<event>
 4    1  0.4353697E+006  0.2917048E+02  0.7546771E-02  0.1607443E+00
         21   -1    0    0  504  501  0.00000000000E+00  0.00000000000E+00  0.52861396232E+01  0.52861396232E+01  0.00000000000E+00 0.  1.
         21   -1    0    0  501  502 -0.00000000000E+00 -0.00000000000E+00 -0.22178312804E+03  0.22178312804E+03  0.00000000000E+00 0. -1.
         21    1    1    2  503  502  0.49685124532E+01 -0.28744228372E+02 -0.16769935286E+03  0.17021747775E+03  0.00000000000E+00 0. -1.
         21    1    1    2  504  503 -0.49685124532E+01  0.28744228372E+02 -0.48797635548E+02  0.56851789908E+02  0.00000000000E+00 0.  1.
<mgrwt>
<rscale>  2 0.29170478E+02</rscale>
<asrwt>0</asrwt>
<pdfrwt beam="1">  1       21 0.81325232E-03 0.29170478E+02</pdfrwt>
<pdfrwt beam="2">  1       21 0.34120478E-01 0.29170478E+02</pdfrwt>
<totfact> 0.33889873E+07</totfact>
</mgrwt>
</event>
<event>
 4    1  0.4353697E+006  0.2337298E+02  0.7546771E-02  0.1685535E+00
         21   -1    0    0  503  501  0.00000000000E+00  0.00000000000E+00  0.60877520437E+01  0.60877520437E+01  0.00000000000E+00 0.  1.
         21   -1    0    0  501  502 -0.00000000000E+00 -0.00000000000E+00 -0.14569451305E+03  0.14569451305E+03  0.00000000000E+00 0.  1.
         21    1    1    2  503  504 -0.17925426099E+02  0.14999184090E+02 -0.22770805848E+02  0.32631365634E+02  0.00000000000E+00 0.  1.
         21    1    1    2  504  502  0.17925426099E+02 -0.14999184090E+02 -0.11683595516E+03  0.11915089946E+03  0.00000000000E+00 0.  1.
<mgrwt>
<rscale>  2 0.23372985E+02</rscale>
<asrwt>0</asrwt>
<pdfrwt beam="1">  1       21 0.93657724E-03 0.23372985E+02</pdfrwt>
<pdfrwt beam="2">  1       21 0.22414540E-01 0.23372985E+02</pdfrwt>
<totfact> 0.55871610E+07</totfact>
</mgrwt>
</event>
<event>
 4    1  0.4353697E+006  0.3269166E+02  0.7546771E-02  0.1570110E+00
         21   -1    0    0  504  501  0.00000000000E+00  0.00000000000E+00  0.50239974240E+01  0.50239974240E+01  0.00000000000E+00 0. -1.
         21   -1    0    0  501  502 -0.00000000000E+00 -0.00000000000E+00 -0.30145287709E+03  0.30145287709E+03  0.00000000000E+00 0. -1.
         21    1    1    2  503  502  0.24028597790E+02 -0.22166896081E+02 -0.23134883940E+03  0.23364723471E+03  0.00000000000E+00 0. -1.
         21    1    1    2  504  503 -0.24028597790E+02  0.22166896081E+02 -0.65080040262E+02  0.72829639805E+02  0.00000000000E+00 0. -1.
<mgrwt>
<rscale>  2 0.32691662E+02</rscale>
<asrwt>0</asrwt>
<pdfrwt beam="1">  1       21 0.77292256E-03 0.32691662E+02</pdfrwt>
<pdfrwt beam="2">  1       21 0.46377373E-01 0.32691662E+02</pdfrwt>
<totfact> 0.20805456E+07</totfact>
</mgrwt>
</event>
<event>
 4    1  0.4353697E+006  0.2524314E+02  0.7546771E-02  0.1657534E+00
         21   -1    0    0  502  501  0.00000000000E+00  0.00000000000E+00  0.46622812508E+02  0.46622812508E+02  0.00000000000E+00 0. -1.
         21   -1    0    0  504  502 -0.00000000000E+00 -0.00000000000E+00 -0.73476311701E+02  0.73476311701E+02  0.00000000000E+00 0.  1.
         21    1    1    2  503  501 -0.25162095266E+02  0.20211622654E+01  0.40750736291E+02  0.47935776237E+02  0.00000000000E+00 0. -1.
         21    1    1    2  504  503  0.25162095266E+02 -0.20211622654E+01 -0.67604235485E+02  0.72163347973E+02  0.00000000000E+00 0.  1.
<mgrwt>
<rscale>  2 0.25243140E+02</rscale>
<asrwt>0</asrwt>
<pdfrwt beam="1">  1       21 0.71727404E-02 0.25243140E+02</pdfrwt>
<pdfrwt beam="2">  1       21 0.11304048E-01 0.25243140E+02</pdfrwt>
<totfact> 0.77455065E+06</totfact>
</mgrwt>
</event>
<event>
 4    1  0.4353697E+006  0.4055450E+02  0.7546771E-02  0.1504170E+00
         21   -1    0    0  504  501  0.00000000000E+00  0.00000000000E+00  0.14804407738E+02  0.14804407738E+02  0.00000000000E+00 0. -1.
         21   -1    0    0  501  502 -0.00000000000E+00 -0.00000000000E+00 -0.63515860846E+03  0.63515860846E+03  0.00000000000E+00 0.  1.
         21    1    1    2  503  502 -0.31867756094E+02 -0.25082136974E+02 -0.60537301737E+03  0.60672988853E+03  0.00000000000E+00 0.  1.
         21    1    1    2  504  503  0.31867756094E+02  0.25082136974E+02 -0.14981183354E+02  0.43233127673E+02  0.00000000000E+00 0. -1.
<mgrwt>
<rscale>  2 0.40554500E+02</rscale>
<asrwt>0</asrwt>
<pdfrwt beam="1">  1       21 0.22776006E-02 0.40554500E+02</pdfrwt>
<pdfrwt beam="2">  1       21 0.97716734E-01 0.40554500E+02</pdfrwt>
<totfact> 0.85560350E+05</totfact>
</mgrwt>
</event>
<event>
 4    1  0.4353697E+006  0.2403856E+02  0.7546771E-02  0.1675208E+00
         21   -1    0    0  503  501  0.00000000000E+00  0.00000000000E+00  0.56392221899E+03  0.56392221899E+03  0.00000000000E+00 0.  1.
         21   -1    0    0  504  502 -0.00000000000E+00 -0.00000000000E+00 -0.23016901045E+01  0.23016901045E+01  0.00000000000E+00 0.  1.
         21    1    1    2  503  502 -0.11451148506E+02  0.21135832673E+02  0.49168677611E+03  0.49227404769E+03  0.00000000000E+00 0.  1.
         21    1    1    2  504  501  0.11451148506E+02 -0.21135832673E+02  0.69933752772E+02  0.73949861404E+02  0.00000000000E+00 0.  1.
<mgrwt>
<rscale>  2 0.24038557E+02</rscale>
<asrwt>0</asrwt>
<pdfrwt beam="1">  1       21 0.86757155E-01 0.24038557E+02</pdfrwt>
<pdfrwt beam="2">  1       21 0.35410662E-03 0.24038557E+02</pdfrwt>
<totfact> 0.17572917E+07</totfact>
</mgrwt>
</event>
<event>
 4    1  0.4353697E+006  0.2137795E+02  0.7546771E-02  0.1719238E+00
         21   -1    0    0  504  501  0.00000000000E+00  0.00000000000E+00  0.70842082913E+03  0.70842082913E+03  0.00000000000E+00 0. -1.
         21   -1    0    0  503  502 -0.00000000000E+00 -0.00000000000E+00 -0.80022788996E+01  0.80022788996E+01  0.00000000000E+00 0.  1.
         21    1    1    2  503  501  0.19318726870E+02  0.91544222846E+01  0.69367848201E+03  0.69400781917E+03  0.00000000000E+00 0. -1.
         21    1    1    2  504  502 -0.19318726870E+02 -0.91544222846E+01  0.67400682157E+01  0.22415288862E+02  0.00000000000E+00 0.  1.
<mgrwt>
<rscale>  2 0.21377948E+02</rscale>
<asrwt>0</asrwt>
<pdfrwt beam="1">  1       21 0.10898777E+00 0.21377948E+02</pdfrwt>
<pdfrwt beam="2">  1       21 0.12311204E-02 0.21377948E+02</pdfrwt>
<totfact> 0.16534924E+06</totfact>
</mgrwt>
</event>
