<event>
 4    1  0.4263413E+000  0.1893003E+03  0.7546771E-02  0.1159094E+00
         21   -1    0    0  501  502  0.00000000000E+00  0.00000000000E+00  0.14588605854E+03  0.14588605854E+03  0.00000000000E+00 0.  1.
         21   -1    0    0  502  503 -0.00000000000E+00 -0.00000000000E+00 -0.31930009127E+03  0.31930009127E+03  0.00000000000E+00 0.  1.
          6    1    1    2  501    0  0.47638650516E+02 -0.60300753217E+02  0.25012783144E+02  0.19094570218E+03  0.17300000000E+03 0.  1.
         -6    1    1    2    0  503 -0.47638650516E+02  0.60300753217E+02 -0.19842681587E+03  0.27424044763E+03  0.17300000000E+03 0.  1.
<mgrwt>
<rscale>  2 0.18930035E+03</rscale>
<asrwt>0</asrwt>
<pdfrwt beam="1">  1       21 0.22444009E-01 0.18930035E+03</pdfrwt>
<pdfrwt beam="2">  1       21 0.49123091E-01 0.18930035E+03</pdfrwt>
<totfact> 0.73594682E+04</totfact>
</mgrwt>
</event>
<event>
 4    1  0.4263413E+000  0.1877792E+03  0.7546771E-02  0.1160480E+00
         21   -1    0    0  503  502  0.00000000000E+00  0.00000000000E+00  0.16139564781E+04  0.16139564781E+04  0.00000000000E+00 0.  1.
         21   -1    0    0  501  503 -0.00000000000E+00 -0.00000000000E+00 -0.85502146922E+02  0.85502146922E+02  0.00000000000E+00 0.  1.
          6    1    1    2  501    0 -0.14584086211E+01 -0.73006153969E+02  0.31053408453E+02  0.19032955538E+03  0.17300000000E+03 0.  1.
         -6    1    1    2    0  502  0.14584086211E+01  0.73006153969E+02  0.14974009227E+04  0.15091290697E+04  0.17300000000E+03 0.  1.
<mgrwt>
<rscale>  2 0.18777919E+03</rscale>
<asrwt>0</asrwt>
<pdfrwt beam="1">  1       21 0.24830097E+00 0.18777919E+03</pdfrwt>
<pdfrwt beam="2">  1       21 0.13154178E-01 0.18777919E+03</pdfrwt>
<totfact> 0.34041308E+03</totfact>
</mgrwt>
</event>
<event>
 4    1  0.4263413E+000  0.2272046E+03  0.7546771E-02  0.1128623E+00
         21   -1    0    0  501  502  0.00000000000E+00  0.00000000000E+00  0.74327923000E+03  0.74327923000E+03  0.00000000000E+00 0.  1.
         21   -1    0    0  502  503 -0.00000000000E+00 -0.00000000000E+00 -0.69535500289E+02  0.69535500289E+02  0.00000000000E+00 0.  1.
          6    1    1    2  501    0  0.23368944387E+02 -0.14541953180E+03  0.35098697313E+03  0.41810740617E+03  0.17300000000E+03 0.  1.
         -6    1    1    2    0  503 -0.23368944387E+02  0.14541953180E+03  0.32275675659E+03  0.39470732412E+03  0.17300000000E+03 0.  1.
<mgrwt>
<rscale>  2 0.22720464E+03</rscale>
<asrwt>0</asrwt>
<pdfrwt beam="1">  1       21 0.11435065E+00 0.22720464E+03</pdfrwt>
<pdfrwt beam="2">  1       21 0.10697770E-01 0.22720464E+03</pdfrwt>
<totfact> 0.42037417E+04</totfact>
</mgrwt>
</event>
<event>
 4    1  0.4263413E+000  0.2462264E+03  0.7546771E-02  0.1115713E+00
         21   -1    0    0  503  502  0.00000000000E+00  0.00000000000E+00  0.26844897788E+03  0.26844897788E+03  0.00000000000E+00 0.  1.
         21   -1    0    0  501  503 -0.00000000000E+00 -0.00000000000E+00 -0.23083203405E+03  0.23083203405E+03  0.00000000000E+00 0. -1.
          6    1    1    2  501    0  0.14986170943E+03  0.90773974640E+02 -0.17890606386E+02  0.24687551564E+03  0.17300000000E+03 0.  1.
         -6    1    1    2    0  502 -0.14986170943E+03 -0.90773974640E+02  0.55507550218E+02  0.25240549629E+03  0.17300000000E+03 0.  1.
<mgrwt>
<rscale>  2 0.24622641E+03</rscale>
<asrwt>0</asrwt>
<pdfrwt beam="1">  1       21 0.41299842E-01 0.24622641E+03</pdfrwt>
<pdfrwt beam="2">  1       21 0.35512621E-01 0.24622641E+03</pdfrwt>
<totfact> 0.42099319E+04</totfact>
</mgrwt>
</event>
<event>
 4    1  0.4263413E+000  0.1961858E+03  0.7546771E-02  0.1152998E+00
         21   -1    0    0  501  502  0.00000000000E+00  0.00000000000E+00  0.83735055448E+03  0.83735055448E+03  0.00000000000E+00 0. -1.
         21   -1    0    0  502  503 -0.00000000000E+00 -0.00000000000E+00 -0.53206761747E+02  0.53206761747E+02  0.00000000000E+00 0. -1.
          6    1    1    2  501    0 -0.86949440418E+02 -0.31617569040E+02  0.22779801481E+03  0.30063401573E+03  0.17300000000E+03 0.  1.
         -6    1    1    2    0  503  0.86949440418E+02  0.31617569040E+02  0.55634577792E+03  0.58992330050E+03  0.17300000000E+03 0.  1.
<mgrwt>
<rscale>  2 0.19618582E+03</rscale>
<asrwt>0</asrwt>
<pdfrwt beam="1">  1       21 0.12882315E+00 0.19618582E+03</pdfrwt>
<pdfrwt beam="2">  1       21 0.81856563E-02 0.19618582E+03</pdfrwt>
<totfact> 0.50898607E+04</totfact>
</mgrwt>
</event>
<event>
 4    1  0.4263413E+000  0.2098907E+03  0.7546771E-02  0.1141653E+00
         21   -1    0    0  501  502  0.00000000000E+00  0.00000000000E+00  0.13039766989E+04  0.13039766989E+04  0.00000000000E+00 0.  1.
         21   -1    0    0  502  503 -0.00000000000E+00 -0.00000000000E+00 -0.11891050943E+03  0.11891050943E+03  0.00000000000E+00 0.  1.
          6    1    1    2  501    0 -0.11857648095E+03 -0.80441179306E+01  0.11944848905E+04  0.12127853245E+04  0.17300000000E+03 0.  1.
         -6    1    1    2    0  503  0.11857648095E+03  0.80441179306E+01 -0.94187010173E+01  0.21010188385E+03  0.17300000000E+03 0.  1.
<mgrwt>
<rscale>  2 0.20989066E+03</rscale>
<asrwt>0</asrwt>
<pdfrwt beam="1">  1       21 0.20061179E+00 0.20989066E+03</pdfrwt>
<pdfrwt beam="2">  1       21 0.18293925E-01 0.20989066E+03</pdfrwt>
<totfact> 0.35668614E+03</totfact>
</mgrwt>
</event>
<event>
 4    1  0.4263413E+000  0.1909108E+03  0.7546771E-02  0.1157642E+00
         21   -1    0    0  501  502  0.00000000000E+00  0.00000000000E+00  0.21188909415E+03  0.21188909415E+03  0.00000000000E+00 0.  1.
         21   -1    0    0  502  503 -0.00000000000E+00 -0.00000000000E+00 -0.48929157111E+03  0.48929157111E+03  0.00000000000E+00 0.  1.
          6    1    1    2  501    0  0.68866921873E+02  0.42134165700E+02  0.14361692694E+03  0.23889906352E+03  0.17300000000E+03 0.  1.
         -6    1    1    2    0  503 -0.68866921873E+02 -0.42134165700E+02 -0.42101940389E+03  0.46228160174E+03  0.17300000000E+03 0.  1.
<mgrwt>
<rscale>  2 0.19091082E+03</rscale>
<asrwt>0</asrwt>
<pdfrwt beam="1">  1       21 0.32598323E-01 0.19091082E+03</pdfrwt>
<pdfrwt beam="2">  1       21 0.75275625E-01 0.19091082E+03</pdfrwt>
<totfact> 0.14297980E+04</totfact>
</mgrwt>
</event>
<event>
 4    1  0.4263413E+000  0.2059852E+03  0.7546771E-02  0.1144785E+00
         21   -1    0    0  501  502  0.00000000000E+00  0.00000000000E+00  0.66496683951E+02  0.66496683951E+02  0.00000000000E+00 0.  1.
         21   -1    0    0  502  503 -0.00000000000E+00 -0.00000000000E+00 -0.63830763758E+03  0.63830763758E+03  0.00000000000E+00 0.  1.
          6    1    1    2  501    0  0.50715464539E+02  0.99643622328E+02 -0.29262481613E+03  0.35785359134E+03  0.17300000000E+03 0.  1.
         -6    1    1    2    0  503 -0.50715464539E+02 -0.99643622328E+02 -0.27918613749E+03  0.34695073020E+03  0.17300000000E+03 0.  1.
<mgrwt>
<rscale>  2 0.20598522E+03</rscale>
<asrwt>0</asrwt>
<pdfrwt beam="1">  1       21 0.10230259E-01 0.20598522E+03</pdfrwt>
<pdfrwt beam="2">  1       21 0.98201173E-01 0.20598522E+03</pdfrwt>
<totfact> 0.66370389E+04</totfact>
</mgrwt>
</event>
<event>
 4    1  0.4263413E+000  0.1784470E+03  0.7546771E-02  0.1169315E+00
         21   -1    0    0  501  502  0.00000000000E+00  0.00000000000E+00  0.24804032695E+03  0.24804032695E+03  0.00000000000E+00 0. -1.
         21   -1    0    0  502  503 -0.00000000000E+00 -0.00000000000E+00 -0.20866162379E+03  0.20866162379E+03  0.00000000000E+00 0. -1.
          6    1    1    2  501    0  0.31783960252E+02 -0.30068725637E+02  0.16133081452E+03  0.24056387947E+03  0.17300000000E+03 0. -1.
         -6    1    1    2    0  503 -0.31783960252E+02  0.30068725637E+02 -0.12195211136E+03  0.21613807128E+03  0.17300000000E+03 0. -1.
<mgrwt>
<rscale>  2 0.17844705E+03</rscale>
<asrwt>0</asrwt>
<pdfrwt beam="1">  1       21 0.38160050E-01 0.17844705E+03</pdfrwt>
<pdfrwt beam="2">  1       21 0.32101788E-01 0.17844705E+03</pdfrwt>
<totfact> 0.62202481E+04</totfact>
</mgrwt>
</event>
<event>
 4    1  0.4263413E+000  0.1810246E+03  0.7546771E-02  0.1166815E+00
         21   -1    0    0  503  502  0.00000000000E+00  0.00000000000E+00  0.62914165782E+02  0.62914165782E+02  0.00000000000E+00 0. -1.
         21   -1    0    0  501  503 -0.00000000000E+00 -0.00000000000E+00 -0.63408278380E+03  0.63408278380E+03  0.00000000000E+00 0. -1.
          6    1    1    2  501    0  0.16762854713E+02  0.50595748913E+02 -0.43284304730E+03  0.46917270456E+03  0.17300000000E+03 0. -1.
         -6    1    1    2    0  502 -0.16762854713E+02 -0.50595748913E+02 -0.13832557072E+03  0.22782424502E+03  0.17300000000E+03 0. -1.
<mgrwt>
<rscale>  2 0.18102465E+03</rscale>
<asrwt>0</asrwt>
<pdfrwt beam="1">  1       21 0.96791022E-02 0.18102465E+03</pdfrwt>
<pdfrwt beam="2">  1       21 0.97551199E-01 0.18102465E+03</pdfrwt>
<totfact> 0.75206275E+04</totfact>
</mgrwt>
</event>
<event>
 4    1  0.4263413E+000  0.2035138E+03  0.7546771E-02  0.1146808E+00
         21   -1    0    0  503  502  0.00000000000E+00  0.00000000000E+00  0.69350682974E+03  0.69350682974E+03  0.00000000000E+00 0.  1.
         21   -1    0    0  501  503 -0.00000000000E+00 -0.00000000000E+00 -0.19616638033E+03  0.19616638033E+03  0.00000000000E+00 0.  1.
          6    1    1    2  501    0 -0.18612430189E+02 -0.10555779912E+03 -0.12232256237E+03  0.23744616396E+03  0.17300000000E+03 0.  1.
         -6    1    1    2    0  502  0.18612430189E+02  0.10555779912E+03  0.61966301178E+03  0.65222704611E+03  0.17300000000E+03 0.  1.
<mgrwt>
<rscale>  2 0.20351381E+03</rscale>
<asrwt>0</asrwt>
<pdfrwt beam="1">  1       21 0.10669336E+00 0.20351381E+03</pdfrwt>
<pdfrwt beam="2">  1       21 0.30179443E-01 0.20351381E+03</pdfrwt>
<totfact> 0.73453180E+03</totfact>
</mgrwt>
</event>
<event>
 4    1  0.4263413E+000  0.1870972E+03  0.7546771E-02  0.1161106E+00
         21   -1    0    0  503  502  0.00000000000E+00  0.00000000000E+00  0.11650759851E+03  0.11650759851E+03  0.00000000000E+00 0. -1.
         21   -1    0    0  501  503 -0.00000000000E+00 -0.00000000000E+00 -0.46014031146E+03  0.46014031146E+03  0.00000000000E+00 0. -1.
          6    1    1    2  501    0  0.70026156198E+02 -0.13140906130E+02 -0.34166708858E+03  0.38954042844E+03  0.17300000000E+03 0. -1.
         -6    1    1    2    0  502 -0.70026156198E+02  0.13140906130E+02 -0.19656243728E+01  0.18710748153E+03  0.17300000000E+03 0. -1.
<mgrwt>
<rscale>  2 0.18709716E+03</rscale>
<asrwt>0</asrwt>
<pdfrwt beam="1">  1       21 0.17924246E-01 0.18709716E+03</pdfrwt>
<pdfrwt beam="2">  1       21 0.70790816E-01 0.18709716E+03</pdfrwt>
<totfact> 0.51279571E+04</totfact>
</mgrwt>
</event>
<event>
 4    1  0.4263413E+000  0.1825224E+03  0.7546771E-02  0.1165384E+00
         21   -1    0    0  503  502  0.00000000000E+00  0.00000000000E+00  0.60922679467E+03  0.60922679467E+03  0.00000000000E+00 0.  1.
         21   -1    0    0  501  503 -0.00000000000E+00 -0.00000000000E+00 -0.10380204982E+03  0.10380204982E+03  0.00000000000E+00 0.  1.
          6    1    1    2  501    0  0.39738668320E+02  0.42500239239E+02  0.74683037659E+01  0.18267514242E+03  0.17300000000E+03 0.  1.
         -6    1    1    2    0  502 -0.39738668320E+02 -0.42500239239E+02  0.49795644108E+03  0.53035370208E+03  0.17300000000E+03 0.  1.
<mgrwt>
<rscale>  2 0.18252242E+03</rscale>
<asrwt>0</asrwt>
<pdfrwt beam="1">  1       21 0.93727197E-01 0.18252242E+03</pdfrwt>
<pdfrwt beam="2">  1       21 0.15969546E-01 0.18252242E+03</pdfrwt>
<totfact> 0.33635845E+04</totfact>
</mgrwt>
</event>
<event>
 4    1  0.4263413E+000  0.1776365E+03  0.7546771E-02  0.1170110E+00
         21   -1    0    0  501  502  0.00000000000E+00  0.00000000000E+00  0.40242820148E+02  0.40242820148E+02  0.00000000000E+00 0. -1.
         21   -1    0    0  502  503 -0.00000000000E+00 -0.00000000000E+00 -0.78535862932E+03  0.78535862932E+03  0.00000000000E+00 0.  1.
          6    1    1    2  501    0  0.34167335918E+02  0.21408084903E+02 -0.35608427876E+03  0.39793306789E+03  0.17300000000E+03 0.  1.
         -6    1    1    2    0  503 -0.34167335918E+02 -0.21408084903E+02 -0.38903153041E+03  0.42766838157E+03  0.17300000000E+03 0.  1.
<mgrwt>
<rscale>  2 0.17763646E+03</rscale>
<asrwt>0</asrwt>
<pdfrwt beam="1">  1       21 0.61912034E-02 0.17763646E+03</pdfrwt>
<pdfrwt beam="2">  1       21 0.12082440E+00 0.17763646E+03</pdfrwt>
<totfact> 0.97659720E+04</totfact>
</mgrwt>
</event>
<event>
 4    1  0.4263413E+000  0.1985053E+03  0.7546771E-02  0.1151006E+00
         21   -1    0    0  503  502  0.00000000000E+00  0.00000000000E+00  0.89430286672E+02  0.89430286672E+02  0.00000000000E+00 0.  1.
         21   -1    0    0  501  503 -0.00000000000E+00 -0.00000000000E+00 -0.58882932735E+03  0.58882932735E+03  0.00000000000E+00 0. -1.
          6    1    1    2  501    0  0.61002894299E+02 -0.75855184373E+02 -0.41984317015E+03  0.46440569508E+03  0.17300000000E+03 0. -1.
         -6    1    1    2    0  502 -0.61002894299E+02  0.75855184373E+02 -0.79555870533E+02  0.21385391894E+03  0.17300000000E+03 0.  1.
<mgrwt>
<rscale>  2 0.19850532E+03</rscale>
<asrwt>0</asrwt>
<pdfrwt beam="1">  1       21 0.13758506E-01 0.19850532E+03</pdfrwt>
<pdfrwt beam="2">  1       21 0.90589125E-01 0.19850532E+03</pdfrwt>
<totfact> 0.47342514E+04</totfact>
</mgrwt>
</event>
<event>
 4    1  0.4263413E+000  0.2059150E+03  0.7546771E-02  0.1144842E+00
         21   -1    0    0  501  502  0.00000000000E+00  0.00000000000E+00  0.30785309060E+03  0.30785309060E+03  0.00000000000E+00 0. -1.
         21   -1    0    0  502  503 -0.00000000000E+00 -0.00000000000E+00 -0.35380847160E+03  0.35380847160E+03  0.00000000000E+00 0.  1.
          6    1    1    2  501    0  0.11075507601E+03 -0.14327961722E+02  0.23556147016E+03  0.31287406983E+03  0.17300000000E+03 0. -1.
         -6    1    1    2    0  503 -0.11075507601E+03  0.14327961722E+02 -0.28151685116E+03  0.34878749237E+03  0.17300000000E+03 0.  1.
<mgrwt>
<rscale>  2 0.20591498E+03</rscale>
<asrwt>0</asrwt>
<pdfrwt beam="1">  1       21 0.47362014E-01 0.20591498E+03</pdfrwt>
<pdfrwt beam="2">  1       21 0.54432072E-01 0.20591498E+03</pdfrwt>
<totfact> 0.13480303E+04</totfact>
</mgrwt>
</event>
<event>
 4    1  0.4263413E+000  0.2302656E+03  0.7546771E-02  0.1126453E+00
         21   -1    0    0  501  502  0.00000000000E+00  0.00000000000E+00  0.14439022912E+04  0.14439022912E+04  0.00000000000E+00 0.  1.
         21   -1    0    0  502  503 -0.00000000000E+00 -0.00000000000E+00 -0.42276290902E+02  0.42276290902E+02  0.00000000000E+00 0.  1.
          6    1    1    2  501    0  0.14228211929E+02  0.15129707994E+03  0.97016901667E+03  0.99712094017E+03  0.17300000000E+03 0.  1.
         -6    1    1    2    0  503 -0.14228211929E+02 -0.15129707994E+03  0.43145698365E+03  0.48905764195E+03  0.17300000000E+03 0.  1.
<mgrwt>
<rscale>  2 0.23026560E+03</rscale>
<asrwt>0</asrwt>
<pdfrwt beam="1">  1       21 0.22213878E+00 0.23026560E+03</pdfrwt>
<pdfrwt beam="2">  1       21 0.65040459E-02 0.23026560E+03</pdfrwt>
<totfact> 0.16271591E+04</totfact>
</mgrwt>
</event>
<event>
 4    1  0.4263413E+000  0.2063207E+03  0.7546771E-02  0.1144513E+00
         21   -1    0    0  501  502  0.00000000000E+00  0.00000000000E+00  0.36229455239E+03  0.36229455239E+03  0.00000000000E+00 0. -1.
         21   -1    0    0  502  503 -0.00000000000E+00 -0.00000000000E+00 -0.13152995260E+03  0.13152995260E+03  0.00000000000E+00 0.  1.
          6    1    1    2  501    0  0.10387870039E+03 -0.42993533152E+02  0.19603472430E+03  0.28460119715E+03  0.17300000000E+03 0. -1.
         -6    1    1    2    0  503 -0.10387870039E+03  0.42993533152E+02  0.34729875488E+02  0.20922330783E+03  0.17300000000E+03 0.  1.
<mgrwt>
<rscale>  2 0.20632069E+03</rscale>
<asrwt>0</asrwt>
<pdfrwt beam="1">  1       21 0.55737623E-01 0.20632069E+03</pdfrwt>
<pdfrwt beam="2">  1       21 0.20235377E-01 0.20632069E+03</pdfrwt>
<totfact> 0.68061965E+04</totfact>
</mgrwt>
</event>
<event>
 4    1  0.4263413E+000  0.2093961E+03  0.7546771E-02  0.1142045E+00
         21   -1    0    0  503  502  0.00000000000E+00  0.00000000000E+00  0.10955805803E+04  0.10955805803E+04  0.00000000000E+00 0.  1.
         21   -1    0    0  501  503 -0.00000000000E+00 -0.00000000000E+00 -0.54596025274E+02  0.54596025274E+02  0.00000000000E+00 0. -1.
          6    1    1    2  501    0  0.11793951211E+03  0.28261456436E+01  0.22335846117E+03  0.30616289421E+03  0.17300000000E+03 0. -1.
         -6    1    1    2    0  502 -0.11793951211E+03 -0.28261456436E+01  0.81762609382E+03  0.84401371133E+03  0.17300000000E+03 0.  1.
<mgrwt>
<rscale>  2 0.20939607E+03</rscale>
<asrwt>0</asrwt>
<pdfrwt beam="1">  1       21 0.16855084E+00 0.20939607E+03</pdfrwt>
<pdfrwt beam="2">  1       21 0.83993893E-02 0.20939607E+03</pdfrwt>
<totfact> 0.23810720E+04</totfact>
</mgrwt>
</event>
<event>
 4    1  0.4263413E+000  0.1843613E+03  0.7546771E-02  0.1163648E+00
         21   -1    0    0  501  502  0.00000000000E+00  0.00000000000E+00  0.19793651243E+03  0.19793651243E+03  0.00000000000E+00 0.  1.
         21   -1    0    0  502  503 -0.00000000000E+00 -0.00000000000E+00 -0.24753910501E+03  0.24753910501E+03  0.00000000000E+00 0.  1.
          6    1    1    2  501    0 -0.91152905195E+00  0.63712392681E+02  0.98472121151E+02  0.20901162291E+03  0.17300000000E+03 0.  1.
         -6    1    1    2    0  503  0.91152905195E+00 -0.63712392681E+02 -0.14807471372E+03  0.23646399453E+03  0.17300000000E+03 0.  1.
<mgrwt>
<rscale>  2 0.18436133E+03</rscale>
<asrwt>0</asrwt>
<pdfrwt beam="1">  1       21 0.30451771E-01 0.18436133E+03</pdfrwt>
<pdfrwt beam="2">  1       21 0.38082939E-01 0.18436133E+03</pdfrwt>
<totfact> 0.69063852E+04</totfact>
</mgrwt>
</event>
<event>
 4    1  0.4263413E+000  0.3197056E+03  0.7546771E-02  0.1075785E+00
         21   -1    0    0  501  502  0.00000000000E+00  0.00000000000E+00  0.86662973268E+02  0.86662973268E+02  0.00000000000E+00 0.  1.
         21   -1    0    0  502  503 -0.00000000000E+00 -0.00000000000E+00 -0.13049458129E+04  0.13049458129E+04  0.00000000000E+00 0. -1.
          6    1    1    2  501    0 -0.10253910335E+03 -0.24853248898E+03 -0.39333468370E+03  0.50687655223E+03  0.17300000000E+03 0. -1.
         -6    1    1    2    0  503  0.10253910335E+03  0.24853248898E+03 -0.82494815589E+03  0.88473223390E+03  0.17300000000E+03 0. -1.
<mgrwt>
<rscale>  2 0.31970559E+03</rscale>
<asrwt>0</asrwt>
<pdfrwt beam="1">  1       21 0.13332766E-01 0.31970559E+03</pdfrwt>
<pdfrwt beam="2">  1       21 0.20076088E+00 0.31970559E+03</pdfrwt>
<totfact> 0.58949118E+03</totfact>
</mgrwt>
</event>
<event>
 4    1  0.4263413E+000  0.2022381E+03  0.7546771E-02  0.1147864E+00
         21   -1    0    0  501  502  0.00000000000E+00  0.00000000000E+00  0.19014099440E+03  0.19014099440E+03  0.00000000000E+00 0.  1.
         21   -1    0    0  502  503 -0.00000000000E+00 -0.00000000000E+00 -0.24265633982E+03  0.24265633982E+03  0.00000000000E+00 0.  1.
          6    1    1    2  501    0 -0.11161000475E+02 -0.10414742443E+03  0.46659722113E+02  0.20755091812E+03  0.17300000000E+03 0. -1.
         -6    1    1    2    0  503  0.11161000475E+02  0.10414742443E+03 -0.99175067531E+02  0.22524641610E+03  0.17300000000E+03 0. -1.
<mgrwt>
<rscale>  2 0.20223811E+03</rscale>
<asrwt>0</asrwt>
<pdfrwt beam="1">  1       21 0.29252461E-01 0.20223811E+03</pdfrwt>
<pdfrwt beam="2">  1       21 0.37331744E-01 0.20223811E+03</pdfrwt>
<totfact> 0.77133399E+04</totfact>
</mgrwt>
</event>
<event>
 4    1  0.4263413E+000  0.1908575E+03  0.7546771E-02  0.1157690E+00
         21   -1    0    0  501  502  0.00000000000E+00  0.00000000000E+00  0.25024569554E+03  0.25024569554E+03  0.00000000000E+00 0. -1.
         21   -1    0    0  502  503 -0.00000000000E+00 -0.00000000000E+00 -0.26809889147E+03  0.26809889147E+03  0.00000000000E+00 0.  1.
          6    1    1    2  501    0  0.47132451771E+02 -0.65392169838E+02  0.16628872557E+03  0.25313740169E+03  0.17300000000E+03 0. -1.
         -6    1    1    2    0  503 -0.47132451771E+02  0.65392169838E+02 -0.18414192150E+03  0.26520718531E+03  0.17300000000E+03 0.  1.
<mgrwt>
<rscale>  2 0.19085755E+03</rscale>
<asrwt>0</asrwt>
<pdfrwt beam="1">  1       21 0.38499338E-01 0.19085755E+03</pdfrwt>
<pdfrwt beam="2">  1       21 0.41245983E-01 0.19085755E+03</pdfrwt>
<totfact> 0.36863233E+04</totfact>
</mgrwt>
</event>
<event>
 4    1  0.4263413E+000  0.1752623E+03  0.7546771E-02  0.1172469E+00
         21   -1    0    0  503  502  0.00000000000E+00  0.00000000000E+00  0.11010939470E+03  0.11010939470E+03  0.00000000000E+00 0.  1.
         21   -1    0    0  501  503 -0.00000000000E+00 -0.00000000000E+00 -0.45174934578E+03  0.45174934578E+03  0.00000000000E+00 0. -1.
          6    1    1    2  501    0  0.27496077692E+02  0.56424637430E+01 -0.34455934582E+03  0.38657213360E+03  0.17300000000E+03 0. -1.
         -6    1    1    2    0  502 -0.27496077692E+02 -0.56424637430E+01  0.29193947392E+01  0.17528660688E+03  0.17300000000E+03 0.  1.
<mgrwt>
<rscale>  2 0.17526229E+03</rscale>
<asrwt>0</asrwt>
<pdfrwt beam="1">  1       21 0.16939907E-01 0.17526229E+03</pdfrwt>
<pdfrwt beam="2">  1       21 0.69499899E-01 0.17526229E+03</pdfrwt>
<totfact> 0.59583989E+04</totfact>
</mgrwt>
</event>
<event>
 4    1  0.4263413E+000  0.1866747E+03  0.7546771E-02  0.1161495E+00
         21   -1    0    0  503  502  0.00000000000E+00  0.00000000000E+00  0.31015651651E+03  0.31015651651E+03  0.00000000000E+00 0. -1.
         21   -1    0    0  501  503 -0.00000000000E+00 -0.00000000000E+00 -0.12046191396E+03  0.12046191396E+03  0.00000000000E+00 0. -1.
          6    1    1    2  501    0  0.59902602723E+02 -0.36471032349E+02  0.38989885381E+02  0.19070309168E+03  0.17300000000E+03 0. -1.
         -6    1    1    2    0  502 -0.59902602723E+02  0.36471032349E+02  0.15070471717E+03  0.23991533880E+03  0.17300000000E+03 0. -1.
<mgrwt>
<rscale>  2 0.18667474E+03</rscale>
<asrwt>0</asrwt>
<pdfrwt beam="1">  1       21 0.47716387E-01 0.18667474E+03</pdfrwt>
<pdfrwt beam="2">  1       21 0.18532602E-01 0.18667474E+03</pdfrwt>
<totfact> 0.11194079E+05</totfact>
</mgrwt>
</event>
<event>
 4    1  0.4263413E+000  0.4505502E+03  0.7546771E-02  0.1027558E+00
         21   -1    0    0  503  502  0.00000000000E+00  0.00000000000E+00  0.11192591972E+04  0.11192591972E+04  0.00000000000E+00 0.  1.
         21   -1    0    0  501  503 -0.00000000000E+00 -0.00000000000E+00 -0.25239246303E+03  0.25239246303E+03  0.00000000000E+00 0. -1.
          6    1    1    2  501    0  0.35529257124E+03  0.21641082477E+03  0.69613815612E+02  0.45589641322E+03  0.17300000000E+03 0. -1.
         -6    1    1    2    0  502 -0.35529257124E+03 -0.21641082477E+03  0.79725291852E+03  0.91575524696E+03  0.17300000000E+03 0.  1.
<mgrwt>
<rscale>  2 0.45055017E+03</rscale>
<asrwt>0</asrwt>
<pdfrwt beam="1">  1       21 0.17219372E+00 0.45055017E+03</pdfrwt>
<pdfrwt beam="2">  1       21 0.38829610E-01 0.45055017E+03</pdfrwt>
<totfact> 0.11092067E+03</totfact>
</mgrwt>
</event>
<event>
 4    1  0.4263413E+000  0.1927348E+03  0.7546771E-02  0.1156018E+00
         21   -1    0    0  503  502  0.00000000000E+00  0.00000000000E+00  0.24811113658E+02  0.24811113658E+02  0.00000000000E+00 0.  1.
         21   -1    0    0  501  503 -0.00000000000E+00 -0.00000000000E+00 -0.18624255884E+04  0.18624255884E+04  0.00000000000E+00 0. -1.
          6    1    1    2  501    0  0.41787540085E+02  0.73969641112E+02 -0.13366850636E+04  0.13505086692E+04  0.17300000000E+03 0. -1.
         -6    1    1    2    0  502 -0.41787540085E+02 -0.73969641112E+02 -0.50092941110E+03  0.53672803282E+03  0.17300000000E+03 0.  1.
<mgrwt>
<rscale>  2 0.19273481E+03</rscale>
<asrwt>0</asrwt>
<pdfrwt beam="1">  1       21 0.38170949E-02 0.19273481E+03</pdfrwt>
<pdfrwt beam="2">  1       21 0.28652698E+00 0.19273481E+03</pdfrwt>
<totfact> 0.17293419E+04</totfact>
</mgrwt>
</event>
<event>
 4    1  0.4263413E+000  0.1803072E+03  0.7546771E-02  0.1167506E+00
         21   -1    0    0  503  502  0.00000000000E+00  0.00000000000E+00  0.26434885146E+04  0.26434885146E+04  0.00000000000E+00 0.  1.
         21   -1    0    0  501  503 -0.00000000000E+00 -0.00000000000E+00 -0.12352162023E+02  0.12352162023E+02  0.00000000000E+00 0.  1.
          6    1    1    2  501    0  0.36238709601E+02  0.35615381340E+02  0.12279675330E+04  0.12411345461E+04  0.17300000000E+03 0.  1.
         -6    1    1    2    0  502 -0.36238709601E+02 -0.35615381340E+02  0.14031688196E+04  0.14147061305E+04  0.17300000000E+03 0.  1.
<mgrwt>
<rscale>  2 0.18030724E+03</rscale>
<asrwt>0</asrwt>
<pdfrwt beam="1">  1       21 0.40669009E+00 0.18030724E+03</pdfrwt>
<pdfrwt beam="2">  1       21 0.19003347E-02 0.18030724E+03</pdfrwt>
<totfact> 0.10761424E+04</totfact>
</mgrwt>
</event>
<event>
 4    1  0.4263413E+000  0.2989707E+03  0.7546771E-02  0.1085756E+00
         21   -1    0    0  501  502  0.00000000000E+00  0.00000000000E+00  0.46979091212E+03  0.46979091212E+03  0.00000000000E+00 0.  1.
         21   -1    0    0  502  503 -0.00000000000E+00 -0.00000000000E+00 -0.20478082291E+03  0.20478082291E+03  0.00000000000E+00 0.  1.
          6    1    1    2  501    0  0.13939739270E+03  0.20005711416E+03  0.22231309627E+03  0.37256757078E+03  0.17300000000E+03 0.  1.
         -6    1    1    2    0  503 -0.13939739270E+03 -0.20005711416E+03  0.42696992943E+02  0.30200416425E+03  0.17300000000E+03 0.  1.
<mgrwt>
<rscale>  2 0.29897070E+03</rscale>
<asrwt>0</asrwt>
<pdfrwt beam="1">  1       21 0.72275525E-01 0.29897070E+03</pdfrwt>
<pdfrwt beam="2">  1       21 0.31504742E-01 0.29897070E+03</pdfrwt>
<totfact> 0.15817999E+04</totfact>
</mgrwt>
</event>
<event>
 4    1  0.4263413E+000  0.1982667E+03  0.7546771E-02  0.1151210E+00
         21   -1    0    0  503  502  0.00000000000E+00  0.00000000000E+00  0.14861175168E+04  0.14861175168E+04  0.00000000000E+00 0. -1.
         21   -1    0    0  501  503 -0.00000000000E+00 -0.00000000000E+00 -0.45147747253E+02  0.45147747253E+02  0.00000000000E+00 0. -1.
          6    1    1    2  501    0  0.40205033307E+01  0.96770485738E+02  0.22778516046E+03  0.30198637499E+03  0.17300000000E+03 0. -1.
         -6    1    1    2    0  502 -0.40205033307E+01 -0.96770485738E+02  0.12131846091E+04  0.12292788891E+04  0.17300000000E+03 0. -1.
<mgrwt>
<rscale>  2 0.19826672E+03</rscale>
<asrwt>0</asrwt>
<pdfrwt beam="1">  1       21 0.22863343E+00 0.19826672E+03</pdfrwt>
<pdfrwt beam="2">  1       21 0.69458084E-02 0.19826672E+03</pdfrwt>
<totfact> 0.13598773E+04</totfact>
</mgrwt>
</event>
<event>
 4    1  0.4263413E+000  0.2184776E+03  0.7546771E-02  0.1135023E+00
         21   -1    0    0  501  502  0.00000000000E+00  0.00000000000E+00  0.28965756673E+03  0.28965756673E+03  0.00000000000E+00 0. -1.
         21   -1    0    0  502  503 -0.00000000000E+00 -0.00000000000E+00 -0.19722740150E+03  0.19722740150E+03  0.00000000000E+00 0. -1.
          6    1    1    2  501    0  0.48896652817E+02  0.12414743464E+03  0.14494310702E+03  0.26218499663E+03  0.17300000000E+03 0. -1.
         -6    1    1    2    0  503 -0.48896652817E+02 -0.12414743464E+03 -0.52512941780E+02  0.22469997160E+03  0.17300000000E+03 0. -1.
<mgrwt>
<rscale>  2 0.21847761E+03</rscale>
<asrwt>0</asrwt>
<pdfrwt beam="1">  1       21 0.44562703E-01 0.21847761E+03</pdfrwt>
<pdfrwt beam="2">  1       21 0.30342677E-01 0.21847761E+03</pdfrwt>
<totfact> 0.49774480E+04</totfact>
</mgrwt>
</event>
<event>
 4    1  0.4263413E+000  0.2371076E+03  0.7546771E-02  0.1121735E+00
         21   -1    0    0  501  502  0.00000000000E+00  0.00000000000E+00  0.33463303190E+02  0.33463303190E+02  0.00000000000E+00 0.  1.
         21   -1    0    0  502  503 -0.00000000000E+00 -0.00000000000E+00 -0.22158492025E+04  0.22158492025E+04  0.00000000000E+00 0.  1.
          6    1    1    2  501    0  0.12357931707E+03 -0.10497218228E+03 -0.53816010486E+03  0.58807848552E+03  0.17300000000E+03 0.  1.
         -6    1    1    2    0  503 -0.12357931707E+03  0.10497218228E+03 -0.16442257944E+04  0.16612340202E+04  0.17300000000E+03 0.  1.
<mgrwt>
<rscale>  2 0.23710758E+03</rscale>
<asrwt>0</asrwt>
<pdfrwt beam="1">  1       21 0.51481972E-02 0.23710758E+03</pdfrwt>
<pdfrwt beam="2">  1       21 0.34090009E+00 0.23710758E+03</pdfrwt>
<totfact> 0.48123458E+03</totfact>
</mgrwt>
</event>
<event>
 4    1  0.4263413E+000  0.2282186E+03  0.7546771E-02  0.1127900E+00
         21   -1    0    0  503  502  0.00000000000E+00  0.00000000000E+00  0.72638113816E+03  0.72638113816E+03  0.00000000000E+00 0. -1.
         21   -1    0    0  501  503 -0.00000000000E+00 -0.00000000000E+00 -0.84797574741E+02  0.84797574741E+02  0.00000000000E+00 0.  1.
          6    1    1    2  501    0  0.35064075507E+02 -0.14465561003E+03  0.16140955477E+03  0.27952956780E+03  0.17300000000E+03 0.  1.
         -6    1    1    2    0  502 -0.35064075507E+02  0.14465561003E+03  0.48017400865E+03  0.53164914510E+03  0.17300000000E+03 0. -1.
<mgrwt>
<rscale>  2 0.22821861E+03</rscale>
<asrwt>0</asrwt>
<pdfrwt beam="1">  1       21 0.11175094E+00 0.22821861E+03</pdfrwt>
<pdfrwt beam="2">  1       21 0.13045781E-01 0.22821861E+03</pdfrwt>
<totfact> 0.31132350E+04</totfact>
</mgrwt>
</event>
<event>
 4    1  0.4263413E+000  0.1743015E+03  0.7546771E-02  0.1173435E+00
         21   -1    0    0  503  502  0.00000000000E+00  0.00000000000E+00  0.13266319552E+03  0.13266319552E+03  0.00000000000E+00 0.  1.
         21   -1    0    0  501  503 -0.00000000000E+00 -0.00000000000E+00 -0.26409660841E+03  0.26409660841E+03  0.00000000000E+00 0.  1.
          6    1    1    2  501    0 -0.10453572419E+02  0.18513031449E+02 -0.13802627435E+03  0.22233367248E+03  0.17300000000E+03 0. -1.
         -6    1    1    2    0  502  0.10453572419E+02 -0.18513031449E+02  0.65928614622E+01  0.17442613145E+03  0.17300000000E+03 0. -1.
<mgrwt>
<rscale>  2 0.17430149E+03</rscale>
<asrwt>0</asrwt>
<pdfrwt beam="1">  1       21 0.20409722E-01 0.17430149E+03</pdfrwt>
<pdfrwt beam="2">  1       21 0.40630247E-01 0.17430149E+03</pdfrwt>
<totfact> 0.13052413E+05</totfact>
</mgrwt>
</event>
<event>
 4    1  0.4263413E+000  0.3548779E+03  0.7546771E-02  0.1060631E+00
         21   -1    0    0  501  502  0.00000000000E+00  0.00000000000E+00  0.22743366970E+03  0.22743366970E+03  0.00000000000E+00 0. -1.
         21   -1    0    0  502  503 -0.00000000000E+00 -0.00000000000E+00 -0.94370425117E+03  0.94370425117E+03  0.00000000000E+00 0. -1.
          6    1    1    2  501    0  0.30908711546E+02 -0.30830824912E+03  0.18286223497E+02  0.35534871731E+03  0.17300000000E+03 0. -1.
         -6    1    1    2    0  503 -0.30908711546E+02  0.30830824912E+03 -0.73455680497E+03  0.81578920356E+03  0.17300000000E+03 0. -1.
<mgrwt>
<rscale>  2 0.35487790E+03</rscale>
<asrwt>0</asrwt>
<pdfrwt beam="1">  1       21 0.34989795E-01 0.35487790E+03</pdfrwt>
<pdfrwt beam="2">  1       21 0.14518527E+00 0.35487790E+03</pdfrwt>
<totfact> 0.22952315E+03</totfact>
</mgrwt>
</event>
<event>
 4    1  0.4263413E+000  0.2574476E+03  0.7546771E-02  0.1108687E+00
         21   -1    0    0  503  502  0.00000000000E+00  0.00000000000E+00  0.70221168617E+03  0.70221168617E+03  0.00000000000E+00 0. -1.
         21   -1    0    0  501  503 -0.00000000000E+00 -0.00000000000E+00 -0.12844076401E+03  0.12844076401E+03  0.00000000000E+00 0. -1.
          6    1    1    2  501    0 -0.99983709959E+02  0.16233763339E+03  0.73028124901E+02  0.26760485141E+03  0.17300000000E+03 0. -1.
         -6    1    1    2    0  502  0.99983709959E+02 -0.16233763339E+03  0.50074279726E+03  0.56304759877E+03  0.17300000000E+03 0. -1.
<mgrwt>
<rscale>  2 0.25744757E+03</rscale>
<asrwt>0</asrwt>
<pdfrwt beam="1">  1       21 0.10803256E+00 0.25744757E+03</pdfrwt>
<pdfrwt beam="2">  1       21 0.19760118E-01 0.25744757E+03</pdfrwt>
<totfact> 0.15505285E+04</totfact>
</mgrwt>
</event>
<event>
 4    1  0.4263413E+000  0.2092049E+03  0.7546771E-02  0.1142197E+00
         21   -1    0    0  501  502  0.00000000000E+00  0.00000000000E+00  0.38308430844E+03  0.38308430844E+03  0.00000000000E+00 0.  1.
         21   -1    0    0  502  503 -0.00000000000E+00 -0.00000000000E+00 -0.39172900195E+03  0.39172900195E+03  0.00000000000E+00 0.  1.
          6    1    1    2  501    0 -0.57310582407E+02  0.10272866282E+03  0.32173253611E+03  0.38376881819E+03  0.17300000000E+03 0.  1.
         -6    1    1    2    0  503  0.57310582407E+02 -0.10272866282E+03 -0.33037722963E+03  0.39104449220E+03  0.17300000000E+03 0.  1.
<mgrwt>
<rscale>  2 0.20920488E+03</rscale>
<asrwt>0</asrwt>
<pdfrwt beam="1">  1       21 0.58936048E-01 0.20920488E+03</pdfrwt>
<pdfrwt beam="2">  1       21 0.60266000E-01 0.20920488E+03</pdfrwt>
<totfact> 0.68280115E+03</totfact>
</mgrwt>
</event>
<event>
 4    1  0.4263413E+000  0.1975876E+03  0.7546771E-02  0.1151790E+00
         21   -1    0    0  503  502  0.00000000000E+00  0.00000000000E+00  0.38032403601E+03  0.38032403601E+03  0.00000000000E+00 0.  1.
         21   -1    0    0  501  503 -0.00000000000E+00 -0.00000000000E+00 -0.13460217957E+03  0.13460217957E+03  0.00000000000E+00 0. -1.
          6    1    1    2  501    0  0.73836986763E+02  0.60497454758E+02  0.24829884553E+03  0.31732185449E+03  0.17300000000E+03 0.  1.
         -6    1    1    2    0  502 -0.73836986763E+02 -0.60497454758E+02 -0.25769890932E+01  0.19760436108E+03  0.17300000000E+03 0. -1.
<mgrwt>
<rscale>  2 0.19758756E+03</rscale>
<asrwt>0</asrwt>
<pdfrwt beam="1">  1       21 0.58511390E-01 0.19758756E+03</pdfrwt>
<pdfrwt beam="2">  1       21 0.20708028E-01 0.19758756E+03</pdfrwt>
<totfact> 0.59007036E+04</totfact>
</mgrwt>
</event>
<event>
 4    1  0.4263413E+000  0.1985749E+03  0.7546771E-02  0.1150947E+00
         21   -1    0    0  503  502  0.00000000000E+00  0.00000000000E+00  0.47489066692E+03  0.47489066692E+03  0.00000000000E+00 0.  1.
         21   -1    0    0  501  503 -0.00000000000E+00 -0.00000000000E+00 -0.83079181128E+02  0.83079181128E+02  0.00000000000E+00 0.  1.
          6    1    1    2  501    0  0.87597515574E+02  0.42774532096E+02  0.18938668437E+03  0.27440718202E+03  0.17300000000E+03 0.  1.
         -6    1    1    2    0  502 -0.87597515574E+02 -0.42774532096E+02  0.20242480142E+03  0.28356266602E+03  0.17300000000E+03 0.  1.
<mgrwt>
<rscale>  2 0.19857489E+03</rscale>
<asrwt>0</asrwt>
<pdfrwt beam="1">  1       21 0.73060101E-01 0.19857489E+03</pdfrwt>
<pdfrwt beam="2">  1       21 0.12781413E-01 0.19857489E+03</pdfrwt>
<totfact> 0.88104943E+04</totfact>
</mgrwt>
</event>
<event>
 4    1  0.4263413E+000  0.2616829E+03  0.7546771E-02  0.1106136E+00
         21   -1    0    0  501  502  0.00000000000E+00  0.00000000000E+00  0.25860085738E+03  0.25860085738E+03  0.00000000000E+00 0.  1.
         21   -1    0    0  502  503 -0.00000000000E+00 -0.00000000000E+00 -0.27327233633E+03  0.27327233633E+03  0.00000000000E+00 0.  1.
          6    1    1    2  501    0 -0.18434322914E+03  0.67575797493E+02 -0.54156824572E+02  0.26722813509E+03  0.17300000000E+03 0.  1.
         -6    1    1    2    0  503  0.18434322914E+03 -0.67575797493E+02  0.39485345621E+02  0.26464505862E+03  0.17300000000E+03 0.  1.
<mgrwt>
<rscale>  2 0.26168285E+03</rscale>
<asrwt>0</asrwt>
<pdfrwt beam="1">  1       21 0.39784747E-01 0.26168285E+03</pdfrwt>
<pdfrwt beam="2">  1       21 0.42041898E-01 0.26168285E+03</pdfrwt>
<totfact> 0.32077102E+04</totfact>
</mgrwt>
</event>
<event>
 4    1  0.4263413E+000  0.2120973E+03  0.7546771E-02  0.1139916E+00
         21   -1    0    0  501  502  0.00000000000E+00  0.00000000000E+00  0.87827123010E+03  0.87827123010E+03  0.00000000000E+00 0. -1.
         21   -1    0    0  502  503 -0.00000000000E+00 -0.00000000000E+00 -0.54909315899E+02  0.54909315899E+02  0.00000000000E+00 0. -1.
          6    1    1    2  501    0 -0.60802202493E+02  0.10658022117E+03  0.53262159407E+03  0.57329836372E+03  0.17300000000E+03 0. -1.
         -6    1    1    2    0  503  0.60802202493E+02 -0.10658022117E+03  0.29074032013E+03  0.35988218228E+03  0.17300000000E+03 0. -1.
<mgrwt>
<rscale>  2 0.21209727E+03</rscale>
<asrwt>0</asrwt>
<pdfrwt beam="1">  1       21 0.13511864E+00 0.21209727E+03</pdfrwt>
<pdfrwt beam="2">  1       21 0.84475877E-02 0.21209727E+03</pdfrwt>
<totfact> 0.42313757E+04</totfact>
</mgrwt>
</event>
<event>
 4    1  0.4263413E+000  0.2118251E+03  0.7546771E-02  0.1140129E+00
         21   -1    0    0  503  502  0.00000000000E+00  0.00000000000E+00  0.62186540893E+02  0.62186540893E+02  0.00000000000E+00 0.  1.
         21   -1    0    0  501  503 -0.00000000000E+00 -0.00000000000E+00 -0.88611410193E+03  0.88611410193E+03  0.00000000000E+00 0.  1.
          6    1    1    2  501    0 -0.96952620873E+02 -0.74438190359E+02 -0.61630532847E+03  0.65169173140E+03  0.17300000000E+03 0.  1.
         -6    1    1    2    0  502  0.96952620873E+02  0.74438190359E+02 -0.20762223257E+03  0.29660891142E+03  0.17300000000E+03 0.  1.
<mgrwt>
<rscale>  2 0.21182506E+03</rscale>
<asrwt>0</asrwt>
<pdfrwt beam="1">  1       21 0.95671600E-02 0.21182506E+03</pdfrwt>
<pdfrwt beam="2">  1       21 0.13632525E+00 0.21182506E+03</pdfrwt>
<totfact> 0.33240507E+04</totfact>
</mgrwt>
</event>
<event>
 4    1  0.4263413E+000  0.1737452E+03  0.7546771E-02  0.1173998E+00
         21   -1    0    0  503  502  0.00000000000E+00  0.00000000000E+00  0.60745753855E+03  0.60745753855E+03  0.00000000000E+00 0. -1.
         21   -1    0    0  501  503 -0.00000000000E+00 -0.00000000000E+00 -0.51260203752E+02  0.51260203752E+02  0.00000000000E+00 0. -1.
          6    1    1    2  501    0 -0.15063114434E+02 -0.56108432020E+01  0.22053934710E+03  0.28075787183E+03  0.17300000000E+03 0.  1.
         -6    1    1    2    0  502  0.15063114434E+02  0.56108432020E+01  0.33565798770E+03  0.37795987047E+03  0.17300000000E+03 0.  1.
<mgrwt>
<rscale>  2 0.17374516E+03</rscale>
<asrwt>0</asrwt>
<pdfrwt beam="1">  1       21 0.93455001E-01 0.17374516E+03</pdfrwt>
<pdfrwt beam="2">  1       21 0.78861856E-02 0.17374516E+03</pdfrwt>
<totfact> 0.11929288E+05</totfact>
</mgrwt>
</event>
<event>
 4    1  0.4263413E+000  0.1880955E+03  0.7546771E-02  0.1160190E+00
         21   -1    0    0  503  502  0.00000000000E+00  0.00000000000E+00  0.85398075263E+03  0.85398075263E+03  0.00000000000E+00 0. -1.
         21   -1    0    0  501  503 -0.00000000000E+00 -0.00000000000E+00 -0.16040717065E+03  0.16040717065E+03  0.00000000000E+00 0. -1.
          6    1    1    2  501    0 -0.61886693059E+02  0.40261153410E+02 -0.90025722051E+02  0.20852950363E+03  0.17300000000E+03 0. -1.
         -6    1    1    2    0  502  0.61886693059E+02 -0.40261153410E+02  0.78359930403E+03  0.80585841966E+03  0.17300000000E+03 0. -1.
<mgrwt>
<rscale>  2 0.18809552E+03</rscale>
<asrwt>0</asrwt>
<pdfrwt beam="1">  1       21 0.13138165E+00 0.18809552E+03</pdfrwt>
<pdfrwt beam="2">  1       21 0.24678027E-01 0.18809552E+03</pdfrwt>
<totfact> 0.65578869E+03</totfact>
</mgrwt>
</event>
<event>
 4    1  0.4263413E+000  0.2312187E+03  0.7546771E-02  0.1125785E+00
         21   -1    0    0  503  502  0.00000000000E+00  0.00000000000E+00  0.40356282152E+02  0.40356282152E+02  0.00000000000E+00 0. -1.
         21   -1    0    0  501  503 -0.00000000000E+00 -0.00000000000E+00 -0.17056777830E+04  0.17056777830E+04  0.00000000000E+00 0.  1.
          6    1    1    2  501    0  0.97992506214E+02 -0.11802771150E+03 -0.12452275857E+04  0.12665124603E+04  0.17300000000E+03 0.  1.
         -6    1    1    2    0  502 -0.97992506214E+02  0.11802771150E+03 -0.42009391514E+03  0.47952160483E+03  0.17300000000E+03 0. -1.
<mgrwt>
<rscale>  2 0.23121867E+03</rscale>
<asrwt>0</asrwt>
<pdfrwt beam="1">  1       21 0.62086596E-02 0.23121867E+03</pdfrwt>
<pdfrwt beam="2">  1       21 0.26241193E+00 0.23121867E+03</pdfrwt>
<totfact> 0.10098119E+04</totfact>
</mgrwt>
</event>
<event>
 4    1  0.4263413E+000  0.1905076E+03  0.7546771E-02  0.1158004E+00
         21   -1    0    0  501  502  0.00000000000E+00  0.00000000000E+00  0.32324218174E+03  0.32324218174E+03  0.00000000000E+00 0.  1.
         21   -1    0    0  502  503 -0.00000000000E+00 -0.00000000000E+00 -0.29060593600E+03  0.29060593600E+03  0.00000000000E+00 0.  1.
          6    1    1    2  501    0  0.17038033412E+02  0.77934919487E+02  0.25674763705E+03  0.31970688980E+03  0.17300000000E+03 0.  1.
         -6    1    1    2    0  503 -0.17038033412E+02 -0.77934919487E+02 -0.22411139131E+03  0.29414122794E+03  0.17300000000E+03 0.  1.
<mgrwt>
<rscale>  2 0.19050760E+03</rscale>
<asrwt>0</asrwt>
<pdfrwt beam="1">  1       21 0.49729567E-01 0.19050760E+03</pdfrwt>
<pdfrwt beam="2">  1       21 0.44708605E-01 0.19050760E+03</pdfrwt>
<totfact> 0.18531136E+04</totfact>
</mgrwt>
</event>
<event>
 4    1  0.4263413E+000  0.2785739E+03  0.7546771E-02  0.1096470E+00
         21   -1    0    0  501  502  0.00000000000E+00  0.00000000000E+00  0.71513097055E+03  0.71513097055E+03  0.00000000000E+00 0. -1.
         21   -1    0    0  502  503 -0.00000000000E+00 -0.00000000000E+00 -0.12572971888E+03  0.12572971888E+03  0.00000000000E+00 0.  1.
          6    1    1    2  501    0  0.64114203780E+02  0.20871941706E+03  0.45026408981E+03  0.52947254580E+03  0.17300000000E+03 0. -1.
         -6    1    1    2    0  503 -0.64114203780E+02 -0.20871941706E+03  0.13913716186E+03  0.31138814363E+03  0.17300000000E+03 0.  1.
<mgrwt>
<rscale>  2 0.27857392E+03</rscale>
<asrwt>0</asrwt>
<pdfrwt beam="1">  1       21 0.11002015E+00 0.27857392E+03</pdfrwt>
<pdfrwt beam="2">  1       21 0.19343034E-01 0.27857392E+03</pdfrwt>
<totfact> 0.15276740E+04</totfact>
</mgrwt>
</event>
<event>
 4    1  0.4263413E+000  0.1760395E+03  0.7546771E-02  0.1171692E+00
         21   -1    0    0  501  502  0.00000000000E+00  0.00000000000E+00  0.29471846842E+03  0.29471846842E+03  0.00000000000E+00 0. -1.
         21   -1    0    0  502  503 -0.00000000000E+00 -0.00000000000E+00 -0.29894672263E+03  0.29894672263E+03  0.00000000000E+00 0. -1.
          6    1    1    2  501    0  0.31330079638E+02  0.89072968263E+01  0.23687981389E+03  0.29513041195E+03  0.17300000000E+03 0. -1.
         -6    1    1    2    0  503 -0.31330079638E+02 -0.89072968263E+01 -0.24110806811E+03  0.29853477910E+03  0.17300000000E+03 0. -1.
<mgrwt>
<rscale>  2 0.17603952E+03</rscale>
<asrwt>0</asrwt>
<pdfrwt beam="1">  1       21 0.45341303E-01 0.17603952E+03</pdfrwt>
<pdfrwt beam="2">  1       21 0.45991804E-01 0.17603952E+03</pdfrwt>
<totfact> 0.21348435E+04</totfact>
</mgrwt>
</event>
<event>
 4    1  0.4263413E+000  0.1805204E+03  0.7546771E-02  0.1167300E+00
         21   -1    0    0  501  502  0.00000000000E+00  0.00000000000E+00  0.92071416129E+02  0.92071416129E+02  0.00000000000E+00 0. -1.
         21   -1    0    0  502  503 -0.00000000000E+00 -0.00000000000E+00 -0.61495240444E+03  0.61495240444E+03  0.00000000000E+00 0. -1.
          6    1    1    2  501    0  0.47557426478E+01  0.51342114626E+02 -0.49175167468E+03  0.52383903957E+03  0.17300000000E+03 0. -1.
         -6    1    1    2    0  503 -0.47557426478E+01 -0.51342114626E+02 -0.31129313625E+02  0.18318478100E+03  0.17300000000E+03 0. -1.
<mgrwt>
<rscale>  2 0.18052044E+03</rscale>
<asrwt>0</asrwt>
<pdfrwt beam="1">  1       21 0.14164833E-01 0.18052044E+03</pdfrwt>
<pdfrwt beam="2">  1       21 0.94608065E-01 0.18052044E+03</pdfrwt>
<totfact> 0.40974700E+04</totfact>
</mgrwt>
</event>
<event>
 4    1  0.4263413E+000  0.2129825E+03  0.7546771E-02  0.1139226E+00
         21   -1    0    0  503  502  0.00000000000E+00  0.00000000000E+00  0.78205661136E+02  0.78205661136E+02  0.00000000000E+00 0. -1.
         21   -1    0    0  501  503 -0.00000000000E+00 -0.00000000000E+00 -0.85973811613E+03  0.85973811613E+03  0.00000000000E+00 0. -1.
          6    1    1    2  501    0  0.76386207387E+02 -0.97967897303E+02 -0.65826200421E+03  0.69186012154E+03  0.17300000000E+03 0. -1.
         -6    1    1    2    0  502 -0.76386207387E+02  0.97967897303E+02 -0.12327045078E+03  0.24608365573E+03  0.17300000000E+03 0. -1.
<mgrwt>
<rscale>  2 0.21298254E+03</rscale>
<asrwt>0</asrwt>
<pdfrwt beam="1">  1       21 0.12031640E-01 0.21298254E+03</pdfrwt>
<pdfrwt beam="2">  1       21 0.13226741E+00 0.21298254E+03</pdfrwt>
<totfact> 0.23863816E+04</totfact>
</mgrwt>
</event>
<event>
 4    1  0.4263413E+000  0.1859862E+03  0.7546771E-02  0.1162132E+00
         21   -1    0    0  501  502  0.00000000000E+00  0.00000000000E+00  0.34079729775E+02  0.34079729775E+02  0.00000000000E+00 0. -1.
         21   -1    0    0  502  503 -0.00000000000E+00 -0.00000000000E+00 -0.10337161752E+04  0.10337161752E+04  0.00000000000E+00 0. -1.
          6    1    1    2  501    0 -0.67856363977E+02  0.75740136183E+01 -0.42797408947E+03  0.46663976800E+03  0.17300000000E+03 0. -1.
         -6    1    1    2    0  503  0.67856363977E+02 -0.75740136183E+01 -0.57166235594E+03  0.60115613696E+03  0.17300000000E+03 0. -1.
<mgrwt>
<rscale>  2 0.18598616E+03</rscale>
<asrwt>0</asrwt>
<pdfrwt beam="1">  1       21 0.52430348E-02 0.18598616E+03</pdfrwt>
<pdfrwt beam="2">  1       21 0.15903327E+00 0.18598616E+03</pdfrwt>
<totfact> 0.63721556E+04</totfact>
</mgrwt>
</event>
<event>
 4    1  0.4263413E+000  0.2923813E+03  0.7546771E-02  0.1089112E+00
         21   -1    0    0  503  502  0.00000000000E+00  0.00000000000E+00  0.29744078163E+03  0.29744078163E+03  0.00000000000E+00 0.  1.
         21   -1    0    0  501  503 -0.00000000000E+00 -0.00000000000E+00 -0.32877109271E+03  0.32877109271E+03  0.00000000000E+00 0. -1.
          6    1    1    2  501    0  0.14478820972E+03  0.18599520455E+03  0.95393219926E+02  0.30754952154E+03  0.17300000000E+03 0. -1.
         -6    1    1    2    0  502 -0.14478820972E+03 -0.18599520455E+03 -0.12672353100E+03  0.31866235281E+03  0.17300000000E+03 0.  1.
<mgrwt>
<rscale>  2 0.29238133E+03</rscale>
<asrwt>0</asrwt>
<pdfrwt beam="1">  1       21 0.45760120E-01 0.29238133E+03</pdfrwt>
<pdfrwt beam="2">  1       21 0.50580168E-01 0.29238133E+03</pdfrwt>
<totfact> 0.16167140E+04</totfact>
</mgrwt>
</event>
<event>
 4    1  0.4263413E+000  0.2275000E+03  0.7546771E-02  0.1128412E+00
         21   -1    0    0  501  502  0.00000000000E+00  0.00000000000E+00  0.76967575724E+03  0.76967575724E+03  0.00000000000E+00 0. -1.
         21   -1    0    0  502  503 -0.00000000000E+00 -0.00000000000E+00 -0.13298352391E+03  0.13298352391E+03  0.00000000000E+00 0. -1.
          6    1    1    2  501    0  0.11022737238E+03  0.98372588062E+02  0.63567347410E+03  0.67515702276E+03  0.17300000000E+03 0. -1.
         -6    1    1    2    0  503 -0.11022737238E+03 -0.98372588062E+02  0.10187592270E+01  0.22750225840E+03  0.17300000000E+03 0. -1.
<mgrwt>
<rscale>  2 0.22749998E+03</rscale>
<asrwt>0</asrwt>
<pdfrwt beam="1">  1       21 0.11841165E+00 0.22749998E+03</pdfrwt>
<pdfrwt beam="2">  1       21 0.20459004E-01 0.22749998E+03</pdfrwt>
<totfact> 0.11798332E+04</totfact>
</mgrwt>
</event>
<event>
 4    1  0.4263413E+000  0.2136477E+03  0.7546771E-02  0.1138710E+00
         21   -1    0    0  501  502  0.00000000000E+00  0.00000000000E+00  0.69936811129E+03  0.69936811129E+03  0.00000000000E+00 0. -1.
         21   -1    0    0  502  503 -0.00000000000E+00 -0.00000000000E+00 -0.75592590080E+02  0.75592590080E+02  0.00000000000E+00 0. -1.
          6    1    1    2  501    0 -0.62278359042E+02 -0.10880135671E+03  0.45509910199E+03  0.50275294316E+03  0.17300000000E+03 0. -1.
         -6    1    1    2    0  503  0.62278359042E+02  0.10880135671E+03  0.16867641922E+03  0.27220775820E+03  0.17300000000E+03 0. -1.
<mgrwt>
<rscale>  2 0.21364768E+03</rscale>
<asrwt>0</asrwt>
<pdfrwt beam="1">  1       21 0.10759509E+00 0.21364768E+03</pdfrwt>
<pdfrwt beam="2">  1       21 0.11629630E-01 0.21364768E+03</pdfrwt>
<totfact> 0.42283958E+04</totfact>
</mgrwt>
</event>
<event>
 4    1  0.4263413E+000  0.1756202E+03  0.7546771E-02  0.1172110E+00
         21   -1    0    0  501  502  0.00000000000E+00  0.00000000000E+00  0.41623054463E+03  0.41623054463E+03  0.00000000000E+00 0.  1.
         21   -1    0    0  502  503 -0.00000000000E+00 -0.00000000000E+00 -0.95796869904E+02  0.95796869904E+02  0.00000000000E+00 0.  1.
          6    1    1    2  501    0 -0.23609737526E+02 -0.18868572259E+02  0.28205739763E+03  0.33226317624E+03  0.17300000000E+03 0.  1.
         -6    1    1    2    0  503  0.23609737526E+02  0.18868572259E+02  0.38376277091E+02  0.17976423829E+03  0.17300000000E+03 0.  1.
<mgrwt>
<rscale>  2 0.17562017E+03</rscale>
<asrwt>0</asrwt>
<pdfrwt beam="1">  1       21 0.64035467E-01 0.17562017E+03</pdfrwt>
<pdfrwt beam="2">  1       21 0.14737980E-01 0.17562017E+03</pdfrwt>
<totfact> 0.91822163E+04</totfact>
</mgrwt>
</event>
<event>
 4    1  0.4263413E+000  0.2196996E+03  0.7546771E-02  0.1134107E+00
         21   -1    0    0  501  502  0.00000000000E+00  0.00000000000E+00  0.71251105403E+03  0.71251105403E+03  0.00000000000E+00 0. -1.
         21   -1    0    0  502  503 -0.00000000000E+00 -0.00000000000E+00 -0.82565945648E+02  0.82565945648E+02  0.00000000000E+00 0.  1.
          6    1    1    2  501    0 -0.12397827861E+03 -0.54482186196E+02  0.48341056185E+03  0.53099312000E+03  0.17300000000E+03 0. -1.
         -6    1    1    2    0  503  0.12397827861E+03  0.54482186196E+02  0.14653454653E+03  0.26408387968E+03  0.17300000000E+03 0. -1.
<mgrwt>
<rscale>  2 0.21969962E+03</rscale>
<asrwt>0</asrwt>
<pdfrwt beam="1">  1       21 0.10961708E+00 0.21969962E+03</pdfrwt>
<pdfrwt beam="2">  1       21 0.12702454E-01 0.21969962E+03</pdfrwt>
<totfact> 0.34388453E+04</totfact>
</mgrwt>
</event>
<event>
 4    1  0.4263413E+000  0.3165797E+03  0.7546771E-02  0.1077234E+00
         21   -1    0    0  501  502  0.00000000000E+00  0.00000000000E+00  0.36715505390E+03  0.36715505390E+03  0.00000000000E+00 0.  1.
         21   -1    0    0  502  503 -0.00000000000E+00 -0.00000000000E+00 -0.36906335054E+03  0.36906335054E+03  0.00000000000E+00 0. -1.
          6    1    1    2  501    0 -0.20277605715E+03  0.17080853158E+03  0.18687829718E+03  0.36762233579E+03  0.17300000000E+03 0.  1.
         -6    1    1    2    0  503  0.20277605715E+03 -0.17080853158E+03 -0.18878659382E+03  0.36859606865E+03  0.17300000000E+03 0. -1.
<mgrwt>
<rscale>  2 0.31657966E+03</rscale>
<asrwt>0</asrwt>
<pdfrwt beam="1">  1       21 0.56485393E-01 0.31657966E+03</pdfrwt>
<pdfrwt beam="2">  1       21 0.56778977E-01 0.31657966E+03</pdfrwt>
<totfact> 0.80120775E+03</totfact>
</mgrwt>
</event>
<event>
 4    1  0.4263413E+000  0.2508751E+03  0.7546771E-02  0.1112753E+00
         21   -1    0    0  501  502  0.00000000000E+00  0.00000000000E+00  0.93296204667E+03  0.93296204667E+03  0.00000000000E+00 0.  1.
         21   -1    0    0  502  503 -0.00000000000E+00 -0.00000000000E+00 -0.81350667357E+02  0.81350667357E+02  0.00000000000E+00 0.  1.
          6    1    1    2  501    0  0.11562019381E+03  0.14014741554E+03  0.63536695492E+03  0.68310284343E+03  0.17300000000E+03 0.  1.
         -6    1    1    2    0  503 -0.11562019381E+03 -0.14014741554E+03  0.21624442440E+03  0.33120987060E+03  0.17300000000E+03 0.  1.
<mgrwt>
<rscale>  2 0.25087512E+03</rscale>
<asrwt>0</asrwt>
<pdfrwt beam="1">  1       21 0.14353261E+00 0.25087512E+03</pdfrwt>
<pdfrwt beam="2">  1       21 0.12515488E-01 0.25087512E+03</pdfrwt>
<totfact> 0.17612811E+04</totfact>
</mgrwt>
</event>
<event>
 4    1  0.4263413E+000  0.2612794E+03  0.7546771E-02  0.1106377E+00
         21   -1    0    0  501  502  0.00000000000E+00  0.00000000000E+00  0.10688078731E+04  0.10688078731E+04  0.00000000000E+00 0.  1.
         21   -1    0    0  502  503 -0.00000000000E+00 -0.00000000000E+00 -0.63943832874E+02  0.63943832874E+02  0.00000000000E+00 0.  1.
          6    1    1    2  501    0 -0.18576828043E+03 -0.61871276914E+02  0.48345046460E+03  0.54953731506E+03  0.17300000000E+03 0.  1.
         -6    1    1    2    0  503  0.18576828043E+03  0.61871276914E+02  0.52141357559E+03  0.58321439088E+03  0.17300000000E+03 0.  1.
<mgrwt>
<rscale>  2 0.26127937E+03</rscale>
<asrwt>0</asrwt>
<pdfrwt beam="1">  1       21 0.16443197E+00 0.26127937E+03</pdfrwt>
<pdfrwt beam="2">  1       21 0.98375135E-02 0.26127937E+03</pdfrwt>
<totfact> 0.18707197E+04</totfact>
</mgrwt>
</event>
<event>
 4    1  0.4263413E+000  0.2090966E+03  0.7546771E-02  0.1142283E+00
         21   -1    0    0  503  502  0.00000000000E+00  0.00000000000E+00  0.29608390895E+03  0.29608390895E+03  0.00000000000E+00 0. -1.
         21   -1    0    0  501  503 -0.00000000000E+00 -0.00000000000E+00 -0.14766783471E+03  0.14766783471E+03  0.00000000000E+00 0. -1.
          6    1    1    2  501    0  0.76336263843E+02 -0.89247725069E+02  0.75088257422E+02  0.22217026806E+03  0.17300000000E+03 0. -1.
         -6    1    1    2    0  502 -0.76336263843E+02  0.89247725069E+02  0.73327816821E+02  0.22158147560E+03  0.17300000000E+03 0. -1.
<mgrwt>
<rscale>  2 0.20909658E+03</rscale>
<asrwt>0</asrwt>
<pdfrwt beam="1">  1       21 0.45551371E-01 0.20909658E+03</pdfrwt>
<pdfrwt beam="2">  1       21 0.22718128E-01 0.20909658E+03</pdfrwt>
<totfact> 0.83378727E+04</totfact>
</mgrwt>
</event>
<event>
 4    1  0.4263413E+000  0.1886410E+03  0.7546771E-02  0.1159693E+00
         21   -1    0    0  501  502  0.00000000000E+00  0.00000000000E+00  0.41777940589E+03  0.41777940589E+03  0.00000000000E+00 0.  1.
         21   -1    0    0  502  503 -0.00000000000E+00 -0.00000000000E+00 -0.17549480295E+03  0.17549480295E+03  0.00000000000E+00 0.  1.
          6    1    1    2  501    0  0.60234888441E+02  0.45035552953E+02  0.33394572363E+03  0.38354294302E+03  0.17300000000E+03 0.  1.
         -6    1    1    2    0  503 -0.60234888441E+02 -0.45035552953E+02 -0.91661120682E+02  0.20973126581E+03  0.17300000000E+03 0.  1.
<mgrwt>
<rscale>  2 0.18864104E+03</rscale>
<asrwt>0</asrwt>
<pdfrwt beam="1">  1       21 0.64273754E-01 0.18864104E+03</pdfrwt>
<pdfrwt beam="2">  1       21 0.26999201E-01 0.18864104E+03</pdfrwt>
<totfact> 0.29254538E+04</totfact>
</mgrwt>
</event>
<event>
 4    1  0.4263413E+000  0.2117636E+03  0.7546771E-02  0.1140177E+00
         21   -1    0    0  501  502  0.00000000000E+00  0.00000000000E+00  0.51553657879E+03  0.51553657879E+03  0.00000000000E+00 0. -1.
         21   -1    0    0  502  503 -0.00000000000E+00 -0.00000000000E+00 -0.56485591593E+03  0.56485591593E+03  0.00000000000E+00 0.  1.
          6    1    1    2  501    0 -0.11261251542E+03  0.47257211471E+02  0.47220502026E+03  0.51751464117E+03  0.17300000000E+03 0. -1.
         -6    1    1    2    0  503  0.11261251542E+03 -0.47257211471E+02 -0.52152435739E+03  0.56287785355E+03  0.17300000000E+03 0.  1.
<mgrwt>
<rscale>  2 0.21176360E+03</rscale>
<asrwt>0</asrwt>
<pdfrwt beam="1">  1       21 0.79313320E-01 0.21176360E+03</pdfrwt>
<pdfrwt beam="2">  1       21 0.86900910E-01 0.21176360E+03</pdfrwt>
<totfact> 0.15695747E+03</totfact>
</mgrwt>
</event>
<event>
 4    1  0.4263413E+000  0.2371461E+03  0.7546771E-02  0.1121709E+00
         21   -1    0    0  501  502  0.00000000000E+00  0.00000000000E+00  0.12180481357E+04  0.12180481357E+04  0.00000000000E+00 0.  1.
         21   -1    0    0  502  503 -0.00000000000E+00 -0.00000000000E+00 -0.48981648258E+02  0.48981648258E+02  0.00000000000E+00 0. -1.
          6    1    1    2  501    0 -0.89352897016E+02 -0.13537110168E+03  0.43277312514E+03  0.49348845298E+03  0.17300000000E+03 0.  1.
         -6    1    1    2    0  503  0.89352897016E+02  0.13537110168E+03  0.73629336231E+03  0.77354133100E+03  0.17300000000E+03 0. -1.
<mgrwt>
<rscale>  2 0.23714611E+03</rscale>
<asrwt>0</asrwt>
<pdfrwt beam="1">  1       21 0.18739200E+00 0.23714611E+03</pdfrwt>
<pdfrwt beam="2">  1       21 0.75356391E-02 0.23714611E+03</pdfrwt>
<totfact> 0.20962875E+04</totfact>
</mgrwt>
</event>
<event>
 4    1  0.4263413E+000  0.1791654E+03  0.7546771E-02  0.1168613E+00
         21   -1    0    0  503  502  0.00000000000E+00  0.00000000000E+00  0.57437536816E+03  0.57437536816E+03  0.00000000000E+00 0. -1.
         21   -1    0    0  501  503 -0.00000000000E+00 -0.00000000000E+00 -0.56263933671E+02  0.56263933671E+02  0.00000000000E+00 0.  1.
          6    1    1    2  501    0  0.30495524653E+02  0.35231778900E+02  0.28485626524E+03  0.33651648862E+03  0.17300000000E+03 0. -1.
         -6    1    1    2    0  502 -0.30495524653E+02 -0.35231778900E+02  0.23325516925E+03  0.29412281321E+03  0.17300000000E+03 0.  1.
<mgrwt>
<rscale>  2 0.17916544E+03</rscale>
<asrwt>0</asrwt>
<pdfrwt beam="1">  1       21 0.88365437E-01 0.17916544E+03</pdfrwt>
<pdfrwt beam="2">  1       21 0.86559902E-02 0.17916544E+03</pdfrwt>
<totfact> 0.11522021E+05</totfact>
</mgrwt>
</event>
<event>
 4    1  0.4263413E+000  0.2722966E+03  0.7546771E-02  0.1099972E+00
         21   -1    0    0  501  502  0.00000000000E+00  0.00000000000E+00  0.10062435248E+03  0.10062435248E+03  0.00000000000E+00 0.  1.
         21   -1    0    0  502  503 -0.00000000000E+00 -0.00000000000E+00 -0.73698579072E+03  0.73698579072E+03  0.00000000000E+00 0. -1.
          6    1    1    2  501    0 -0.16643143423E+03 -0.12851863706E+03 -0.32377997908E+03  0.42305902333E+03  0.17300000000E+03 0. -1.
         -6    1    1    2    0  503  0.16643143423E+03  0.12851863706E+03 -0.31258145916E+03  0.41455111987E+03  0.17300000000E+03 0.  1.
<mgrwt>
<rscale>  2 0.27229664E+03</rscale>
<asrwt>0</asrwt>
<pdfrwt beam="1">  1       21 0.15480669E-01 0.27229664E+03</pdfrwt>
<pdfrwt beam="2">  1       21 0.11338243E+00 0.27229664E+03</pdfrwt>
<totfact> 0.21527587E+04</totfact>
</mgrwt>
</event>
<event>
 4    1  0.4263413E+000  0.1836866E+03  0.7546771E-02  0.1164282E+00
         21   -1    0    0  501  502  0.00000000000E+00  0.00000000000E+00  0.11791528929E+04  0.11791528929E+04  0.00000000000E+00 0.  1.
         21   -1    0    0  502  503 -0.00000000000E+00 -0.00000000000E+00 -0.41141914535E+02  0.41141914535E+02  0.00000000000E+00 0.  1.
          6    1    1    2  501    0  0.52667564055E+02  0.32216247847E+02  0.90569135314E+03  0.92413071915E+03  0.17300000000E+03 0.  1.
         -6    1    1    2    0  503 -0.52667564055E+02 -0.32216247847E+02  0.23231962526E+03  0.29616408832E+03  0.17300000000E+03 0.  1.
<mgrwt>
<rscale>  2 0.18368658E+03</rscale>
<asrwt>0</asrwt>
<pdfrwt beam="1">  1       21 0.18140811E+00 0.18368658E+03</pdfrwt>
<pdfrwt beam="2">  1       21 0.63295262E-02 0.18368658E+03</pdfrwt>
<totfact> 0.32216118E+04</totfact>
</mgrwt>
</event>
<event>
 4    1  0.4263413E+000  0.1835895E+03  0.7546771E-02  0.1164374E+00
         21   -1    0    0  501  502  0.00000000000E+00  0.00000000000E+00  0.32115215647E+03  0.32115215647E+03  0.00000000000E+00 0. -1.
         21   -1    0    0  502  503 -0.00000000000E+00 -0.00000000000E+00 -0.13573778298E+03  0.13573778298E+03  0.00000000000E+00 0.  1.
          6    1    1    2  501    0  0.39767987776E+02 -0.46846512882E+02  0.20150413231E+03  0.27259677907E+03  0.17300000000E+03 0. -1.
         -6    1    1    2    0  503 -0.39767987776E+02  0.46846512882E+02 -0.16089758821E+02  0.18429316037E+03  0.17300000000E+03 0.  1.
<mgrwt>
<rscale>  2 0.18358946E+03</rscale>
<asrwt>0</asrwt>
<pdfrwt beam="1">  1       21 0.49408024E-01 0.18358946E+03</pdfrwt>
<pdfrwt beam="2">  1       21 0.20882736E-01 0.18358946E+03</pdfrwt>
<totfact> 0.83466561E+04</totfact>
</mgrwt>
</event>
<event>
 4    1  0.4263413E+000  0.2858836E+03  0.7546771E-02  0.1092518E+00
         21   -1    0    0  501  502  0.00000000000E+00  0.00000000000E+00  0.65373825670E+03  0.65373825670E+03  0.00000000000E+00 0. -1.
         21   -1    0    0  502  503 -0.00000000000E+00 -0.00000000000E+00 -0.16058313318E+03  0.16058313318E+03  0.00000000000E+00 0.  1.
          6    1    1    2  501    0  0.22263687716E+03 -0.47257095256E+02  0.43819044906E+03  0.52320195123E+03  0.17300000000E+03 0.  1.
         -6    1    1    2    0  503 -0.22263687716E+03  0.47257095256E+02  0.54964674449E+02  0.29111943865E+03  0.17300000000E+03 0.  1.
<mgrwt>
<rscale>  2 0.28588356E+03</rscale>
<asrwt>0</asrwt>
<pdfrwt beam="1">  1       21 0.10057511E+00 0.28588356E+03</pdfrwt>
<pdfrwt beam="2">  1       21 0.24705098E-01 0.28588356E+03</pdfrwt>
<totfact> 0.11891715E+04</totfact>
</mgrwt>
</event>
<event>
 4    1  0.4263413E+000  0.1800136E+03  0.7546771E-02  0.1167790E+00
         21   -1    0    0  501  502  0.00000000000E+00  0.00000000000E+00  0.60128811475E+02  0.60128811475E+02  0.00000000000E+00 0.  1.
         21   -1    0    0  502  503 -0.00000000000E+00 -0.00000000000E+00 -0.54090299643E+03  0.54090299643E+03  0.00000000000E+00 0.  1.
          6    1    1    2  501    0  0.42915362906E+02 -0.25182691013E+02 -0.22221255861E+03  0.28597782695E+03  0.17300000000E+03 0.  1.
         -6    1    1    2    0  503 -0.42915362906E+02  0.25182691013E+02 -0.25856162634E+03  0.31505398095E+03  0.17300000000E+03 0.  1.
<mgrwt>
<rscale>  2 0.18001360E+03</rscale>
<asrwt>0</asrwt>
<pdfrwt beam="1">  1       21 0.92505863E-02 0.18001360E+03</pdfrwt>
<pdfrwt beam="2">  1       21 0.83215846E-01 0.18001360E+03</pdfrwt>
<totfact> 0.11762972E+05</totfact>
</mgrwt>
</event>
<event>
 4    1  0.4263413E+000  0.2324396E+03  0.7546771E-02  0.1124934E+00
         21   -1    0    0  503  502  0.00000000000E+00  0.00000000000E+00  0.36626837589E+03  0.36626837589E+03  0.00000000000E+00 0. -1.
         21   -1    0    0  501  503 -0.00000000000E+00 -0.00000000000E+00 -0.15477178059E+03  0.15477178059E+03  0.00000000000E+00 0.  1.
          6    1    1    2  501    0 -0.11420347066E+03  0.10515099584E+03  0.49316525601E+02  0.23761372926E+03  0.17300000000E+03 0.  1.
         -6    1    1    2    0  502  0.11420347066E+03 -0.10515099584E+03  0.16218006970E+03  0.28342642722E+03  0.17300000000E+03 0. -1.
<mgrwt>
<rscale>  2 0.23243959E+03</rscale>
<asrwt>0</asrwt>
<pdfrwt beam="1">  1       21 0.56348981E-01 0.23243959E+03</pdfrwt>
<pdfrwt beam="2">  1       21 0.23811043E-01 0.23243959E+03</pdfrwt>
<totfact> 0.48336484E+04</totfact>
</mgrwt>
</event>
<event>
 4    1  0.4263413E+000  0.2428174E+03  0.7546771E-02  0.1117930E+00
         21   -1    0    0  503  502  0.00000000000E+00  0.00000000000E+00  0.59263337464E+03  0.59263337464E+03  0.00000000000E+00 0.  1.
         21   -1    0    0  501  503 -0.00000000000E+00 -0.00000000000E+00 -0.10500401658E+03  0.10500401658E+03  0.00000000000E+00 0. -1.
          6    1    1    2  501    0  0.67339330810E+02 -0.15651418424E+03  0.16387079309E+03  0.29294011704E+03  0.17300000000E+03 0. -1.
         -6    1    1    2    0  502 -0.67339330810E+02  0.15651418424E+03  0.32375856497E+03  0.40469727419E+03  0.17300000000E+03 0.  1.
<mgrwt>
<rscale>  2 0.24281737E+03</rscale>
<asrwt>0</asrwt>
<pdfrwt beam="1">  1       21 0.91174364E-01 0.24281737E+03</pdfrwt>
<pdfrwt beam="2">  1       21 0.16154464E-01 0.24281737E+03</pdfrwt>
<totfact> 0.34045629E+04</totfact>
</mgrwt>
</event>
<event>
 4    1  0.4263413E+000  0.1776862E+03  0.7546771E-02  0.1170061E+00
         21   -1    0    0  503  502  0.00000000000E+00  0.00000000000E+00  0.25153060549E+03  0.25153060549E+03  0.00000000000E+00 0.  1.
         21   -1    0    0  501  503 -0.00000000000E+00 -0.00000000000E+00 -0.15961819388E+03  0.15961819388E+03  0.00000000000E+00 0.  1.
          6    1    1    2  501    0  0.10387530685E+02 -0.39185469494E+02 -0.49057537345E+02  0.18433405487E+03  0.17300000000E+03 0.  1.
         -6    1    1    2    0  502 -0.10387530685E+02  0.39185469494E+02  0.14096994896E+03  0.22681474450E+03  0.17300000000E+03 0.  1.
<mgrwt>
<rscale>  2 0.17768625E+03</rscale>
<asrwt>0</asrwt>
<pdfrwt beam="1">  1       21 0.38697016E-01 0.17768625E+03</pdfrwt>
<pdfrwt beam="2">  1       21 0.24556645E-01 0.17768625E+03</pdfrwt>
<totfact> 0.10148879E+05</totfact>
</mgrwt>
</event>
<event>
 4    1  0.4263413E+000  0.2290967E+03  0.7546771E-02  0.1127277E+00
         21   -1    0    0  501  502  0.00000000000E+00  0.00000000000E+00  0.30781605427E+03  0.30781605427E+03  0.00000000000E+00 0.  1.
         21   -1    0    0  502  503 -0.00000000000E+00 -0.00000000000E+00 -0.17270905218E+03  0.17270905218E+03  0.00000000000E+00 0. -1.
          6    1    1    2  501    0 -0.29393314359E+02  0.14728309372E+03  0.94673334629E+02  0.24788771029E+03  0.17300000000E+03 0.  1.
         -6    1    1    2    0  503  0.29393314359E+02 -0.14728309372E+03  0.40433667454E+02  0.23263739615E+03  0.17300000000E+03 0. -1.
<mgrwt>
<rscale>  2 0.22909665E+03</rscale>
<asrwt>0</asrwt>
<pdfrwt beam="1">  1       21 0.47356316E-01 0.22909665E+03</pdfrwt>
<pdfrwt beam="2">  1       21 0.26570623E-01 0.22909665E+03</pdfrwt>
<totfact> 0.56555167E+04</totfact>
</mgrwt>
</event>
<event>
 4    1  0.4263413E+000  0.2899538E+03  0.7546771E-02  0.1090373E+00
         21   -1    0    0  501  502  0.00000000000E+00  0.00000000000E+00  0.95431591645E+03  0.95431591645E+03  0.00000000000E+00 0. -1.
         21   -1    0    0  502  503 -0.00000000000E+00 -0.00000000000E+00 -0.17417408491E+03  0.17417408491E+03  0.00000000000E+00 0.  1.
          6    1    1    2  501    0 -0.12574211087E+03 -0.19578846543E+03  0.78673011076E+03  0.83846136990E+03  0.17300000000E+03 0. -1.
         -6    1    1    2    0  503  0.12574211087E+03  0.19578846543E+03 -0.65882792139E+01  0.29002863146E+03  0.17300000000E+03 0.  1.
<mgrwt>
<rscale>  2 0.28995379E+03</rscale>
<asrwt>0</asrwt>
<pdfrwt beam="1">  1       21 0.14681783E+00 0.28995379E+03</pdfrwt>
<pdfrwt beam="2">  1       21 0.26796014E-01 0.28995379E+03</pdfrwt>
<totfact> 0.39106082E+03</totfact>
</mgrwt>
</event>
<event>
 4    1  0.4263413E+000  0.2100306E+03  0.7546771E-02  0.1141542E+00
         21   -1    0    0  503  502  0.00000000000E+00  0.00000000000E+00  0.71812293808E+03  0.71812293808E+03  0.00000000000E+00 0. -1.
         21   -1    0    0  501  503 -0.00000000000E+00 -0.00000000000E+00 -0.10123360410E+03  0.10123360410E+03  0.00000000000E+00 0. -1.
          6    1    1    2  501    0  0.79464755104E+02 -0.88708566371E+02  0.51551424121E+02  0.21626466743E+03  0.17300000000E+03 0. -1.
         -6    1    1    2    0  502 -0.79464755104E+02  0.88708566371E+02  0.56533790986E+03  0.60309187474E+03  0.17300000000E+03 0. -1.
<mgrwt>
<rscale>  2 0.21003061E+03</rscale>
<asrwt>0</asrwt>
<pdfrwt beam="1">  1       21 0.11048045E+00 0.21003061E+03</pdfrwt>
<pdfrwt beam="2">  1       21 0.15574401E-01 0.21003061E+03</pdfrwt>
<totfact> 0.23424846E+04</totfact>
</mgrwt>
</event>
<event>
 4    1  0.4263413E+000  0.2534774E+03  0.7546771E-02  0.1111127E+00
         21   -1    0    0  501  502  0.00000000000E+00  0.00000000000E+00  0.10319334632E+03  0.10319334632E+03  0.00000000000E+00 0.  1.
         21   -1    0    0  502  503 -0.00000000000E+00 -0.00000000000E+00 -0.10798983665E+04  0.10798983665E+04  0.00000000000E+00 0. -1.
          6    1    1    2  501    0  0.83113176097E+02  0.16557167206E+03 -0.10341978909E+03  0.27376345885E+03  0.17300000000E+03 0.  1.
         -6    1    1    2    0  503 -0.83113176097E+02 -0.16557167206E+03 -0.87328523112E+03  0.90932825400E+03  0.17300000000E+03 0. -1.
<mgrwt>
<rscale>  2 0.25347737E+03</rscale>
<asrwt>0</asrwt>
<pdfrwt beam="1">  1       21 0.15875899E-01 0.25347737E+03</pdfrwt>
<pdfrwt beam="2">  1       21 0.16613821E+00 0.25347737E+03</pdfrwt>
<totfact> 0.76902060E+03</totfact>
</mgrwt>
</event>
<event>
 4    1  0.4263413E+000  0.2142353E+03  0.7546771E-02  0.1138255E+00
         21   -1    0    0  501  502  0.00000000000E+00  0.00000000000E+00  0.47425293105E+02  0.47425293105E+02  0.00000000000E+00 0.  1.
         21   -1    0    0  502  503 -0.00000000000E+00 -0.00000000000E+00 -0.99849358410E+03  0.99849358410E+03  0.00000000000E+00 0.  1.
          6    1    1    2  501    0  0.55690912218E+02  0.11342959644E+03 -0.38379915730E+03  0.43954356348E+03  0.17300000000E+03 0.  1.
         -6    1    1    2    0  503 -0.55690912218E+02 -0.11342959644E+03 -0.56726913370E+03  0.60637531373E+03  0.17300000000E+03 0.  1.
<mgrwt>
<rscale>  2 0.21423527E+03</rscale>
<asrwt>0</asrwt>
<pdfrwt beam="1">  1       21 0.72961991E-02 0.21423527E+03</pdfrwt>
<pdfrwt beam="2">  1       21 0.15361440E+00 0.21423527E+03</pdfrwt>
<totfact> 0.39021272E+04</totfact>
</mgrwt>
</event>
<event>
 4    1  0.4263413E+000  0.1789259E+03  0.7546771E-02  0.1168847E+00
         21   -1    0    0  503  502  0.00000000000E+00  0.00000000000E+00  0.63613698249E+02  0.63613698249E+02  0.00000000000E+00 0. -1.
         21   -1    0    0  501  503 -0.00000000000E+00 -0.00000000000E+00 -0.69868312778E+03  0.69868312778E+03  0.00000000000E+00 0. -1.
          6    1    1    2  501    0  0.40704999732E+01 -0.45485376452E+02 -0.51911007740E+03  0.54908083275E+03  0.17300000000E+03 0. -1.
         -6    1    1    2    0  502 -0.40704999732E+01  0.45485376452E+02 -0.11595935213E+03  0.21321599327E+03  0.17300000000E+03 0. -1.
<mgrwt>
<rscale>  2 0.17892593E+03</rscale>
<asrwt>0</asrwt>
<pdfrwt beam="1">  1       21 0.97867223E-02 0.17892593E+03</pdfrwt>
<pdfrwt beam="2">  1       21 0.10748972E+00 0.17892593E+03</pdfrwt>
<totfact> 0.58599819E+04</totfact>
</mgrwt>
</event>
<event>
 4    1  0.4263413E+000  0.2746723E+03  0.7546771E-02  0.1098635E+00
         21   -1    0    0  503  502  0.00000000000E+00  0.00000000000E+00  0.10873604880E+04  0.10873604880E+04  0.00000000000E+00 0.  1.
         21   -1    0    0  501  503 -0.00000000000E+00 -0.00000000000E+00 -0.74882279657E+02  0.74882279657E+02  0.00000000000E+00 0.  1.
          6    1    1    2  501    0  0.12214148594E+03 -0.17492088766E+03  0.66371391682E+03  0.71830426903E+03  0.17300000000E+03 0.  1.
         -6    1    1    2    0  502 -0.12214148594E+03  0.17492088766E+03  0.34876429157E+03  0.44393849867E+03  0.17300000000E+03 0.  1.
<mgrwt>
<rscale>  2 0.27467228E+03</rscale>
<asrwt>0</asrwt>
<pdfrwt beam="1">  1       21 0.16728622E+00 0.27467228E+03</pdfrwt>
<pdfrwt beam="2">  1       21 0.11520352E-01 0.27467228E+03</pdfrwt>
<totfact> 0.13353557E+04</totfact>
</mgrwt>
</event>
<event>
 4    1  0.4263413E+000  0.2244596E+03  0.7546771E-02  0.1130601E+00
         21   -1    0    0  501  502  0.00000000000E+00  0.00000000000E+00  0.21962815389E+02  0.21962815389E+02  0.00000000000E+00 0.  1.
         21   -1    0    0  502  503 -0.00000000000E+00 -0.00000000000E+00 -0.35160652262E+04  0.35160652262E+04  0.00000000000E+00 0.  1.
          6    1    1    2  501    0 -0.29169731426E+02 -0.14000807072E+03 -0.70412259607E+03  0.73903366865E+03  0.17300000000E+03 0.  1.
         -6    1    1    2    0  503  0.29169731426E+02  0.14000807072E+03 -0.27899798147E+04  0.27989943729E+04  0.17300000000E+03 0.  1.
<mgrwt>
<rscale>  2 0.22445965E+03</rscale>
<asrwt>0</asrwt>
<pdfrwt beam="1">  1       21 0.33788960E-02 0.22445965E+03</pdfrwt>
<pdfrwt beam="2">  1       21 0.54093291E+00 0.22445965E+03</pdfrwt>
<totfact> 0.47437549E+02</totfact>
</mgrwt>
</event>
<event>
 4    1  0.4263413E+000  0.3149804E+03  0.7546771E-02  0.1077983E+00
         21   -1    0    0  503  502  0.00000000000E+00  0.00000000000E+00  0.59246883519E+03  0.59246883519E+03  0.00000000000E+00 0. -1.
         21   -1    0    0  501  503 -0.00000000000E+00 -0.00000000000E+00 -0.25294724625E+03  0.25294724625E+03  0.00000000000E+00 0. -1.
          6    1    1    2  501    0 -0.23107809078E+03  0.12604181059E+03 -0.75984757546E+02  0.32401590305E+03  0.17300000000E+03 0. -1.
         -6    1    1    2    0  502  0.23107809078E+03 -0.12604181059E+03  0.41550634648E+03  0.52140017839E+03  0.17300000000E+03 0. -1.
<mgrwt>
<rscale>  2 0.31498035E+03</rscale>
<asrwt>0</asrwt>
<pdfrwt beam="1">  1       21 0.91149051E-01 0.31498035E+03</pdfrwt>
<pdfrwt beam="2">  1       21 0.38914961E-01 0.31498035E+03</pdfrwt>
<totfact> 0.60332252E+03</totfact>
</mgrwt>
</event>
<event>
 4    1  0.4263413E+000  0.2111746E+03  0.7546771E-02  0.1140639E+00
         21   -1    0    0  503  502  0.00000000000E+00  0.00000000000E+00  0.20729716494E+03  0.20729716494E+03  0.00000000000E+00 0.  1.
         21   -1    0    0  501  503 -0.00000000000E+00 -0.00000000000E+00 -0.21824042963E+03  0.21824042963E+03  0.00000000000E+00 0.  1.
          6    1    1    2  501    0 -0.82080774982E+02 -0.89041934516E+02 -0.30894654422E+02  0.21342258408E+03  0.17300000000E+03 0.  1.
         -6    1    1    2    0  502  0.82080774982E+02  0.89041934516E+02  0.19951389735E+02  0.21211501049E+03  0.17300000000E+03 0.  1.
<mgrwt>
<rscale>  2 0.21117462E+03</rscale>
<asrwt>0</asrwt>
<pdfrwt beam="1">  1       21 0.31891872E-01 0.21117462E+03</pdfrwt>
<pdfrwt beam="2">  1       21 0.33575450E-01 0.21117462E+03</pdfrwt>
<totfact> 0.80151189E+04</totfact>
</mgrwt>
</event>
<event>
 4    1  0.4263413E+000  0.3297961E+03  0.7546771E-02  0.1071227E+00
         21   -1    0    0  501  502  0.00000000000E+00  0.00000000000E+00  0.70652142355E+03  0.70652142355E+03  0.00000000000E+00 0.  1.
         21   -1    0    0  502  503 -0.00000000000E+00 -0.00000000000E+00 -0.16634103664E+03  0.16634103664E+03  0.00000000000E+00 0. -1.
          6    1    1    2  501    0  0.50352178610E+02  0.27622661642E+03  0.38922987344E+03  0.51016211138E+03  0.17300000000E+03 0.  1.
         -6    1    1    2    0  503 -0.50352178610E+02 -0.27622661642E+03  0.15095051347E+03  0.36270034881E+03  0.17300000000E+03 0. -1.
<mgrwt>
<rscale>  2 0.32979613E+03</rscale>
<asrwt>0</asrwt>
<pdfrwt beam="1">  1       21 0.10869560E+00 0.32979613E+03</pdfrwt>
<pdfrwt beam="2">  1       21 0.25590929E-01 0.32979613E+03</pdfrwt>
<totfact> 0.90172518E+03</totfact>
</mgrwt>
</event>
<event>
 4    1  0.4263413E+000  0.2382633E+03  0.7546771E-02  0.1120955E+00
         21   -1    0    0  501  502  0.00000000000E+00  0.00000000000E+00  0.41685690778E+02  0.41685690778E+02  0.00000000000E+00 0.  1.
         21   -1    0    0  502  503 -0.00000000000E+00 -0.00000000000E+00 -0.13840627752E+04  0.13840627752E+04  0.00000000000E+00 0.  1.
          6    1    1    2  501    0 -0.15834417098E+03 -0.42041758759E+02 -0.58086515480E+03  0.62783255254E+03  0.17300000000E+03 0.  1.
         -6    1    1    2    0  503  0.15834417098E+03  0.42041758759E+02 -0.76151192962E+03  0.79791591344E+03  0.17300000000E+03 0.  1.
<mgrwt>
<rscale>  2 0.23826327E+03</rscale>
<asrwt>0</asrwt>
<pdfrwt beam="1">  1       21 0.64131836E-02 0.23826327E+03</pdfrwt>
<pdfrwt beam="2">  1       21 0.21293272E+00 0.23826327E+03</pdfrwt>
<totfact> 0.18922171E+04</totfact>
</mgrwt>
</event>
<event>
 4    1  0.4263413E+000  0.2674687E+03  0.7546771E-02  0.1102737E+00
         21   -1    0    0  503  502  0.00000000000E+00  0.00000000000E+00  0.24894797621E+03  0.24894797621E+03  0.00000000000E+00 0. -1.
         21   -1    0    0  501  503 -0.00000000000E+00 -0.00000000000E+00 -0.61278505991E+03  0.61278505991E+03  0.00000000000E+00 0. -1.
          6    1    1    2  501    0 -0.18354568650E+03  0.89002732426E+02 -0.49590382653E+03  0.56343598623E+03  0.17300000000E+03 0. -1.
         -6    1    1    2    0  502  0.18354568650E+03 -0.89002732426E+02  0.13206674284E+03  0.29829704989E+03  0.17300000000E+03 0. -1.
<mgrwt>
<rscale>  2 0.26746870E+03</rscale>
<asrwt>0</asrwt>
<pdfrwt beam="1">  1       21 0.38299689E-01 0.26746870E+03</pdfrwt>
<pdfrwt beam="2">  1       21 0.94274624E-01 0.26746870E+03</pdfrwt>
<totfact> 0.58985079E+03</totfact>
</mgrwt>
</event>
<event>
 4    1  0.4263413E+000  0.1796292E+03  0.7546771E-02  0.1168162E+00
         21   -1    0    0  501  502  0.00000000000E+00  0.00000000000E+00  0.11355010712E+03  0.11355010712E+03  0.00000000000E+00 0.  1.
         21   -1    0    0  502  503 -0.00000000000E+00 -0.00000000000E+00 -0.60945581099E+03  0.60945581099E+03  0.00000000000E+00 0.  1.
          6    1    1    2  501    0  0.20425075784E+02  0.43823053919E+02  0.16153312717E+02  0.18035402210E+03  0.17300000000E+03 0.  1.
         -6    1    1    2    0  503 -0.20425075784E+02 -0.43823053919E+02 -0.51205901658E+03  0.54265189601E+03  0.17300000000E+03 0.  1.
<mgrwt>
<rscale>  2 0.17962918E+03</rscale>
<asrwt>0</asrwt>
<pdfrwt beam="1">  1       21 0.17469248E-01 0.17962918E+03</pdfrwt>
<pdfrwt beam="2">  1       21 0.93762431E-01 0.17962918E+03</pdfrwt>
<totfact> 0.28551565E+04</totfact>
</mgrwt>
</event>
<event>
 4    1  0.4263413E+000  0.2733359E+03  0.7546771E-02  0.1099385E+00
         21   -1    0    0  503  502  0.00000000000E+00  0.00000000000E+00  0.21927361148E+03  0.21927361148E+03  0.00000000000E+00 0.  1.
         21   -1    0    0  501  503 -0.00000000000E+00 -0.00000000000E+00 -0.40189104416E+03  0.40189104416E+03  0.00000000000E+00 0. -1.
          6    1    1    2  501    0  0.85778378356E+02  0.19345695691E+03 -0.21247151720E+03  0.34620322065E+03  0.17300000000E+03 0.  1.
         -6    1    1    2    0  502 -0.85778378356E+02 -0.19345695691E+03  0.29854084517E+02  0.27496143499E+03  0.17300000000E+03 0.  1.
<mgrwt>
<rscale>  2 0.27333592E+03</rscale>
<asrwt>0</asrwt>
<pdfrwt beam="1">  1       21 0.33734402E-01 0.27333592E+03</pdfrwt>
<pdfrwt beam="2">  1       21 0.61829391E-01 0.27333592E+03</pdfrwt>
<totfact> 0.19712268E+04</totfact>
</mgrwt>
</event>
<event>
 4    1  0.4263413E+000  0.3252732E+03  0.7546771E-02  0.1073248E+00
         21   -1    0    0  501  502  0.00000000000E+00  0.00000000000E+00  0.31682850282E+03  0.31682850282E+03  0.00000000000E+00 0. -1.
         21   -1    0    0  502  503 -0.00000000000E+00 -0.00000000000E+00 -0.64629186536E+03  0.64629186536E+03  0.00000000000E+00 0.  1.
          6    1    1    2  501    0  0.27536677855E+03 -0.68385764278E+01 -0.49950918231E+03  0.59608057514E+03  0.17300000000E+03 0.  1.
         -6    1    1    2    0  503 -0.27536677855E+03  0.68385764278E+01  0.17004581976E+03  0.36703979304E+03  0.17300000000E+03 0. -1.
<mgrwt>
<rscale>  2 0.32527316E+03</rscale>
<asrwt>0</asrwt>
<pdfrwt beam="1">  1       21 0.48742847E-01 0.32527316E+03</pdfrwt>
<pdfrwt beam="2">  1       21 0.99429517E-01 0.32527316E+03</pdfrwt>
<totfact> 0.30634435E+03</totfact>
</mgrwt>
</event>
<event>
 4    1  0.4263413E+000  0.1869279E+03  0.7546771E-02  0.1161262E+00
         21   -1    0    0  503  502  0.00000000000E+00  0.00000000000E+00  0.11875020507E+03  0.11875020507E+03  0.00000000000E+00 0. -1.
         21   -1    0    0  501  503 -0.00000000000E+00 -0.00000000000E+00 -0.32479636826E+03  0.32479636826E+03  0.00000000000E+00 0. -1.
          6    1    1    2  501    0  0.69962094110E+02 -0.10878993097E+02 -0.17103663393E+03  0.25336846143E+03  0.17300000000E+03 0. -1.
         -6    1    1    2    0  502 -0.69962094110E+02  0.10878993097E+02 -0.35009529263E+02  0.19017811189E+03  0.17300000000E+03 0. -1.
<mgrwt>
<rscale>  2 0.18692792E+03</rscale>
<asrwt>0</asrwt>
<pdfrwt beam="1">  1       21 0.18269262E-01 0.18692792E+03</pdfrwt>
<pdfrwt beam="2">  1       21 0.49968672E-01 0.18692792E+03</pdfrwt>
<totfact> 0.10443999E+05</totfact>
</mgrwt>
</event>
<event>
 4    1  0.4263413E+000  0.3484588E+03  0.7546771E-02  0.1063249E+00
         21   -1    0    0  503  502  0.00000000000E+00  0.00000000000E+00  0.29407397389E+03  0.29407397389E+03  0.00000000000E+00 0.  1.
         21   -1    0    0  501  503 -0.00000000000E+00 -0.00000000000E+00 -0.42893224316E+03  0.42893224316E+03  0.00000000000E+00 0. -1.
          6    1    1    2  501    0  0.30196744153E+03 -0.17612853094E+02  0.24578339226E+01  0.34846748669E+03  0.17300000000E+03 0.  1.
         -6    1    1    2    0  502 -0.30196744153E+03  0.17612853094E+02 -0.13731610319E+03  0.37453873035E+03  0.17300000000E+03 0. -1.
<mgrwt>
<rscale>  2 0.34845882E+03</rscale>
<asrwt>0</asrwt>
<pdfrwt beam="1">  1       21 0.45242150E-01 0.34845882E+03</pdfrwt>
<pdfrwt beam="2">  1       21 0.65989576E-01 0.34845882E+03</pdfrwt>
<totfact> 0.91078607E+03</totfact>
</mgrwt>
</event>
<event>
 4    1  0.4263413E+000  0.1927221E+03  0.7546771E-02  0.1156029E+00
         21   -1    0    0  503  502  0.00000000000E+00  0.00000000000E+00  0.84490618971E+03  0.84490618971E+03  0.00000000000E+00 0. -1.
         21   -1    0    0  501  503 -0.00000000000E+00 -0.00000000000E+00 -0.70842744310E+02  0.70842744310E+02  0.00000000000E+00 0. -1.
          6    1    1    2  501    0  0.61972287782E+02  0.58071092634E+02  0.10497398209E+03  0.21945695060E+03  0.17300000000E+03 0. -1.
         -6    1    1    2    0  502 -0.61972287782E+02 -0.58071092634E+02  0.66908946332E+03  0.69629198342E+03  0.17300000000E+03 0. -1.
<mgrwt>
<rscale>  2 0.19272212E+03</rscale>
<asrwt>0</asrwt>
<pdfrwt beam="1">  1       21 0.12998556E+00 0.19272212E+03</pdfrwt>
<pdfrwt beam="2">  1       21 0.10898884E-01 0.19272212E+03</pdfrwt>
<totfact> 0.30122732E+04</totfact>
</mgrwt>
</event>
<event>
 4    1  0.4263413E+000  0.2446577E+03  0.7546771E-02  0.1116728E+00
         21   -1    0    0  501  502  0.00000000000E+00  0.00000000000E+00  0.65662265640E+03  0.65662265640E+03  0.00000000000E+00 0. -1.
         21   -1    0    0  502  503 -0.00000000000E+00 -0.00000000000E+00 -0.11079709877E+03  0.11079709877E+03  0.00000000000E+00 0. -1.
          6    1    1    2  501    0  0.12073570692E+03 -0.12390033878E+03  0.43445378246E+03  0.49860554948E+03  0.17300000000E+03 0. -1.
         -6    1    1    2    0  503 -0.12073570692E+03  0.12390033878E+03  0.11137177517E+03  0.26881420569E+03  0.17300000000E+03 0. -1.
<mgrwt>
<rscale>  2 0.24465773E+03</rscale>
<asrwt>0</asrwt>
<pdfrwt beam="1">  1       21 0.10101887E+00 0.24465773E+03</pdfrwt>
<pdfrwt beam="2">  1       21 0.17045708E-01 0.24465773E+03</pdfrwt>
<totfact> 0.24175288E+04</totfact>
</mgrwt>
</event>
<event>
 4    1  0.4263413E+000  0.1805617E+03  0.7546771E-02  0.1167261E+00
         21   -1    0    0  503  502  0.00000000000E+00  0.00000000000E+00  0.34484215500E+03  0.34484215500E+03  0.00000000000E+00 0.  1.
         21   -1    0    0  501  503 -0.00000000000E+00 -0.00000000000E+00 -0.16890188524E+03  0.16890188524E+03  0.00000000000E+00 0.  1.
          6    1    1    2  501    0 -0.22510053988E+02 -0.46549271030E+02 -0.82467275394E+02  0.19850286818E+03  0.17300000000E+03 0.  1.
         -6    1    1    2    0  502  0.22510053988E+02  0.46549271030E+02  0.25840754516E+03  0.31524117205E+03  0.17300000000E+03 0.  1.
<mgrwt>
<rscale>  2 0.18056173E+03</rscale>
<asrwt>0</asrwt>
<pdfrwt beam="1">  1       21 0.53052639E-01 0.18056173E+03</pdfrwt>
<pdfrwt beam="2">  1       21 0.25984905E-01 0.18056173E+03</pdfrwt>
<totfact> 0.47620915E+04</totfact>
</mgrwt>
</event>
<event>
 4    1  0.4263413E+000  0.2177147E+03  0.7546771E-02  0.1135598E+00
         21   -1    0    0  501  502  0.00000000000E+00  0.00000000000E+00  0.18462034632E+03  0.18462034632E+03  0.00000000000E+00 0.  1.
         21   -1    0    0  502  503 -0.00000000000E+00 -0.00000000000E+00 -0.29455584183E+03  0.29455584183E+03  0.00000000000E+00 0.  1.
          6    1    1    2  501    0  0.12380210654E+03 -0.46300275596E+02  0.30876370081E+02  0.21989321802E+03  0.17300000000E+03 0.  1.
         -6    1    1    2    0  503 -0.12380210654E+03  0.46300275596E+02 -0.14081186559E+03  0.25928297012E+03  0.17300000000E+03 0.  1.
<mgrwt>
<rscale>  2 0.21771467E+03</rscale>
<asrwt>0</asrwt>
<pdfrwt beam="1">  1       21 0.28403131E-01 0.21771467E+03</pdfrwt>
<pdfrwt beam="2">  1       21 0.45316283E-01 0.21771467E+03</pdfrwt>
<totfact> 0.54713921E+04</totfact>
</mgrwt>
</event>
<event>
 4    1  0.4263413E+000  0.2146834E+03  0.7546771E-02  0.1137910E+00
         21   -1    0    0  503  502  0.00000000000E+00  0.00000000000E+00  0.51785198453E+03  0.51785198453E+03  0.00000000000E+00 0.  1.
         21   -1    0    0  501  503 -0.00000000000E+00 -0.00000000000E+00 -0.16727388511E+03  0.16727388511E+03  0.00000000000E+00 0.  1.
          6    1    1    2  501    0  0.63937104144E+02 -0.10987267781E+03 -0.59044265565E+02  0.22265485378E+03  0.17300000000E+03 0.  1.
         -6    1    1    2    0  502 -0.63937104144E+02  0.10987267781E+03  0.40962236499E+03  0.46247101586E+03  0.17300000000E+03 0.  1.
<mgrwt>
<rscale>  2 0.21468339E+03</rscale>
<asrwt>0</asrwt>
<pdfrwt beam="1">  1       21 0.79669535E-01 0.21468339E+03</pdfrwt>
<pdfrwt beam="2">  1       21 0.25734444E-01 0.21468339E+03</pdfrwt>
<totfact> 0.19634614E+04</totfact>
</mgrwt>
</event>
<event>
 4    1  0.4263413E+000  0.1735063E+03  0.7546771E-02  0.1174240E+00
         21   -1    0    0  503  502  0.00000000000E+00  0.00000000000E+00  0.25613673802E+02  0.25613673802E+02  0.00000000000E+00 0.  1.
         21   -1    0    0  501  503 -0.00000000000E+00 -0.00000000000E+00 -0.14415321599E+04  0.14415321599E+04  0.00000000000E+00 0.  1.
          6    1    1    2  501    0 -0.13172144524E+02  0.13886290065E+01 -0.10231980194E+04  0.10378047121E+04  0.17300000000E+03 0.  1.
         -6    1    1    2    0  502  0.13172144524E+02 -0.13886290065E+01 -0.39272046671E+03  0.42934112155E+03  0.17300000000E+03 0.  1.
<mgrwt>
<rscale>  2 0.17350629E+03</rscale>
<asrwt>0</asrwt>
<pdfrwt beam="1">  1       21 0.39405648E-02 0.17350629E+03</pdfrwt>
<pdfrwt beam="2">  1       21 0.22177420E+00 0.17350629E+03</pdfrwt>
<totfact> 0.39990624E+04</totfact>
</mgrwt>
</event>
<event>
 4    1  0.4263413E+000  0.2339944E+03  0.7546771E-02  0.1123859E+00
         21   -1    0    0  503  502  0.00000000000E+00  0.00000000000E+00  0.58609781148E+03  0.58609781148E+03  0.00000000000E+00 0.  1.
         21   -1    0    0  501  503 -0.00000000000E+00 -0.00000000000E+00 -0.10779054091E+03  0.10779054091E+03  0.00000000000E+00 0. -1.
          6    1    1    2  501    0  0.10632138318E+03  0.11627618303E+03  0.11247525855E+03  0.25962294014E+03  0.17300000000E+03 0. -1.
         -6    1    1    2    0  502 -0.10632138318E+03 -0.11627618303E+03  0.36583201201E+03  0.43426541225E+03  0.17300000000E+03 0.  1.
<mgrwt>
<rscale>  2 0.23399442E+03</rscale>
<asrwt>0</asrwt>
<pdfrwt beam="1">  1       21 0.90168892E-01 0.23399442E+03</pdfrwt>
<pdfrwt beam="2">  1       21 0.16583161E-01 0.23399442E+03</pdfrwt>
<totfact> 0.33427682E+04</totfact>
</mgrwt>
</event>
<event>
 4    1  0.4263413E+000  0.2180051E+03  0.7546771E-02  0.1135379E+00
         21   -1    0    0  503  502  0.00000000000E+00  0.00000000000E+00  0.28126043660E+03  0.28126043660E+03  0.00000000000E+00 0. -1.
         21   -1    0    0  501  503 -0.00000000000E+00 -0.00000000000E+00 -0.16953985307E+03  0.16953985307E+03  0.00000000000E+00 0. -1.
          6    1    1    2  501    0 -0.49525353861E+02 -0.12306292294E+03  0.68859845768E+02  0.22862178819E+03  0.17300000000E+03 0. -1.
         -6    1    1    2    0  502  0.49525353861E+02  0.12306292294E+03  0.42860737764E+02  0.22217850148E+03  0.17300000000E+03 0. -1.
<mgrwt>
<rscale>  2 0.21800515E+03</rscale>
<asrwt>0</asrwt>
<pdfrwt beam="1">  1       21 0.43270836E-01 0.21800515E+03</pdfrwt>
<pdfrwt beam="2">  1       21 0.26083054E-01 0.21800515E+03</pdfrwt>
<totfact> 0.70925542E+04</totfact>
</mgrwt>
</event>
<event>
 4    1  0.4263413E+000  0.2115199E+03  0.7546771E-02  0.1140368E+00
         21   -1    0    0  503  502  0.00000000000E+00  0.00000000000E+00  0.11864487680E+04  0.11864487680E+04  0.00000000000E+00 0.  1.
         21   -1    0    0  501  503 -0.00000000000E+00 -0.00000000000E+00 -0.44929820395E+02  0.44929820395E+02  0.00000000000E+00 0. -1.
          6    1    1    2  501    0 -0.31018786571E+02  0.11768391391E+03  0.32394795432E+03  0.38688880292E+03  0.17300000000E+03 0. -1.
         -6    1    1    2    0  502  0.31018786571E+02 -0.11768391391E+03  0.81757099324E+03  0.84448978543E+03  0.17300000000E+03 0.  1.
<mgrwt>
<rscale>  2 0.21151990E+03</rscale>
<asrwt>0</asrwt>
<pdfrwt beam="1">  1       21 0.18253056E+00 0.21151990E+03</pdfrwt>
<pdfrwt beam="2">  1       21 0.69122810E-02 0.21151990E+03</pdfrwt>
<totfact> 0.26695717E+04</totfact>
</mgrwt>
</event>
<event>
 4    1  0.4263413E+000  0.1885560E+03  0.7546771E-02  0.1159770E+00
         21   -1    0    0  503  502  0.00000000000E+00  0.00000000000E+00  0.14872579564E+03  0.14872579564E+03  0.00000000000E+00 0. -1.
         21   -1    0    0  501  503 -0.00000000000E+00 -0.00000000000E+00 -0.44477649268E+03  0.44477649268E+03  0.00000000000E+00 0. -1.
          6    1    1    2  501    0  0.73285481680E+02 -0.15924639814E+02 -0.34984496399E+03  0.39742276584E+03  0.17300000000E+03 0. -1.
         -6    1    1    2    0  502 -0.73285481680E+02  0.15924639814E+02  0.53794266949E+02  0.19607952248E+03  0.17300000000E+03 0. -1.
<mgrwt>
<rscale>  2 0.18855598E+03</rscale>
<asrwt>0</asrwt>
<pdfrwt beam="1">  1       21 0.22880892E-01 0.18855598E+03</pdfrwt>
<pdfrwt beam="2">  1       21 0.68427152E-01 0.18855598E+03</pdfrwt>
<totfact> 0.34989055E+04</totfact>
</mgrwt>
</event>
<event>
 4    1  0.4263413E+000  0.2542500E+03  0.7546771E-02  0.1110648E+00
         21   -1    0    0  503  502  0.00000000000E+00  0.00000000000E+00  0.10499324766E+03  0.10499324766E+03  0.00000000000E+00 0. -1.
         21   -1    0    0  501  503 -0.00000000000E+00 -0.00000000000E+00 -0.13277192972E+04  0.13277192972E+04  0.00000000000E+00 0.  1.
          6    1    1    2  501    0 -0.84944443478E+02 -0.16582674371E+03 -0.11359596836E+04  0.11640650627E+04  0.17300000000E+03 0.  1.
         -6    1    1    2    0  502  0.84944443478E+02  0.16582674371E+03 -0.86766365903E+02  0.26864748214E+03  0.17300000000E+03 0. -1.
<mgrwt>
<rscale>  2 0.25425001E+03</rscale>
<asrwt>0</asrwt>
<pdfrwt beam="1">  1       21 0.16152808E-01 0.25425001E+03</pdfrwt>
<pdfrwt beam="2">  1       21 0.20426449E+00 0.25425001E+03</pdfrwt>
<totfact> 0.41014048E+03</totfact>
</mgrwt>
</event>
<event>
 4    1  0.4263413E+000  0.1846253E+03  0.7546771E-02  0.1163400E+00
         21   -1    0    0  501  502  0.00000000000E+00  0.00000000000E+00  0.67606766540E+03  0.67606766540E+03  0.00000000000E+00 0. -1.
         21   -1    0    0  502  503 -0.00000000000E+00 -0.00000000000E+00 -0.12984540085E+03  0.12984540085E+03  0.00000000000E+00 0. -1.
          6    1    1    2  501    0  0.60290676455E+02  0.22859415510E+02  0.58826882446E+03  0.61656040124E+03  0.17300000000E+03 0. -1.
         -6    1    1    2    0  503 -0.60290676455E+02 -0.22859415510E+02 -0.42046559912E+02  0.18935266501E+03  0.17300000000E+03 0. -1.
<mgrwt>
<rscale>  2 0.18462535E+03</rscale>
<asrwt>0</asrwt>
<pdfrwt beam="1">  1       21 0.10401041E+00 0.18462535E+03</pdfrwt>
<pdfrwt beam="2">  1       21 0.19976216E-01 0.18462535E+03</pdfrwt>
<totfact> 0.17379230E+04</totfact>
</mgrwt>
</event>
<event>
 4    1  0.4263413E+000  0.2033320E+03  0.7546771E-02  0.1146958E+00
         21   -1    0    0  503  502  0.00000000000E+00  0.00000000000E+00  0.42348363108E+03  0.42348363108E+03  0.00000000000E+00 0. -1.
         21   -1    0    0  501  503 -0.00000000000E+00 -0.00000000000E+00 -0.97794234189E+02  0.97794234189E+02  0.00000000000E+00 0. -1.
          6    1    1    2  501    0  0.59964532838E+02  0.88426073998E+02  0.17358633784E+03  0.26735020562E+03  0.17300000000E+03 0.  1.
         -6    1    1    2    0  502 -0.59964532838E+02 -0.88426073998E+02  0.15210305905E+03  0.25392765964E+03  0.17300000000E+03 0.  1.
<mgrwt>
<rscale>  2 0.20333203E+03</rscale>
<asrwt>0</asrwt>
<pdfrwt beam="1">  1       21 0.65151327E-01 0.20333203E+03</pdfrwt>
<pdfrwt beam="2">  1       21 0.15045267E-01 0.20333203E+03</pdfrwt>
<totfact> 0.84211946E+04</totfact>
</mgrwt>
</event>
<event>
 4    1  0.4263413E+000  0.2075576E+03  0.7546771E-02  0.1143515E+00
         21   -1    0    0  503  502  0.00000000000E+00  0.00000000000E+00  0.55792033985E+03  0.55792033985E+03  0.00000000000E+00 0.  1.
         21   -1    0    0  501  503 -0.00000000000E+00 -0.00000000000E+00 -0.94222715148E+02  0.94222715148E+02  0.00000000000E+00 0.  1.
          6    1    1    2  501    0  0.11462751392E+03  0.34188565314E+01  0.93316731735E+02  0.22757013852E+03  0.17300000000E+03 0.  1.
         -6    1    1    2    0  502 -0.11462751392E+03 -0.34188565314E+01  0.37038089297E+03  0.42457291647E+03  0.17300000000E+03 0.  1.
<mgrwt>
<rscale>  2 0.20755760E+03</rscale>
<asrwt>0</asrwt>
<pdfrwt beam="1">  1       21 0.85833896E-01 0.20755760E+03</pdfrwt>
<pdfrwt beam="2">  1       21 0.14495803E-01 0.20755760E+03</pdfrwt>
<totfact> 0.48549035E+04</totfact>
</mgrwt>
</event>
<event>
 4    1  0.4263413E+000  0.3174205E+03  0.7546771E-02  0.1076843E+00
         21   -1    0    0  503  502  0.00000000000E+00  0.00000000000E+00  0.33430375705E+03  0.33430375705E+03  0.00000000000E+00 0. -1.
         21   -1    0    0  501  503 -0.00000000000E+00 -0.00000000000E+00 -0.30450360164E+03  0.30450360164E+03  0.00000000000E+00 0. -1.
          6    1    1    2  501    0 -0.26613196926E+03  0.75301986662E+00 -0.17398159255E+02  0.31789697710E+03  0.17300000000E+03 0. -1.
         -6    1    1    2    0  502  0.26613196926E+03 -0.75301986662E+00  0.47198314659E+02  0.32091038159E+03  0.17300000000E+03 0. -1.
<mgrwt>
<rscale>  2 0.31742053E+03</rscale>
<asrwt>0</asrwt>
<pdfrwt beam="1">  1       21 0.51431347E-01 0.31742053E+03</pdfrwt>
<pdfrwt beam="2">  1       21 0.46846708E-01 0.31742053E+03</pdfrwt>
<totfact> 0.14709441E+04</totfact>
</mgrwt>
</event>
<event>
 4    1  0.4263413E+000  0.2349549E+03  0.7546771E-02  0.1123200E+00
         21   -1    0    0  501  502  0.00000000000E+00  0.00000000000E+00  0.76910010166E+02  0.76910010166E+02  0.00000000000E+00 0. -1.
         21   -1    0    0  502  503 -0.00000000000E+00 -0.00000000000E+00 -0.74217938557E+03  0.74217938557E+03  0.00000000000E+00 0.  1.
          6    1    1    2  501    0  0.15801415156E+03  0.17502968823E+02 -0.25836519115E+03  0.34922256228E+03  0.17300000000E+03 0. -1.
         -6    1    1    2    0  503 -0.15801415156E+03 -0.17502968823E+02 -0.40690418426E+03  0.46986683346E+03  0.17300000000E+03 0.  1.
<mgrwt>
<rscale>  2 0.23495494E+03</rscale>
<asrwt>0</asrwt>
<pdfrwt beam="1">  1       21 0.11832310E-01 0.23495494E+03</pdfrwt>
<pdfrwt beam="2">  1       21 0.11418144E+00 0.23495494E+03</pdfrwt>
<totfact> 0.35097984E+04</totfact>
</mgrwt>
</event>
<event>
 4    1  0.4263413E+000  0.2020820E+03  0.7546771E-02  0.1147994E+00
         21   -1    0    0  503  502  0.00000000000E+00  0.00000000000E+00  0.65996514392E+02  0.65996514392E+02  0.00000000000E+00 0. -1.
         21   -1    0    0  501  503 -0.00000000000E+00 -0.00000000000E+00 -0.64387432498E+03  0.64387432498E+03  0.00000000000E+00 0.  1.
          6    1    1    2  501    0  0.10406012816E+03  0.89236815225E+01 -0.35901344468E+03  0.41198033427E+03  0.17300000000E+03 0. -1.
         -6    1    1    2    0  502 -0.10406012816E+03 -0.89236815225E+01 -0.21886436590E+03  0.29789050509E+03  0.17300000000E+03 0. -1.
<mgrwt>
<rscale>  2 0.20208202E+03</rscale>
<asrwt>0</asrwt>
<pdfrwt beam="1">  1       21 0.10153310E-01 0.20208202E+03</pdfrwt>
<pdfrwt beam="2">  1       21 0.99057587E-01 0.20208202E+03</pdfrwt>
<totfact> 0.66019054E+04</totfact>
</mgrwt>
</event>
<event>
 4    1  0.4263413E+000  0.1790933E+03  0.7546771E-02  0.1168683E+00
         21   -1    0    0  503  502  0.00000000000E+00  0.00000000000E+00  0.20171295837E+03  0.20171295837E+03  0.00000000000E+00 0.  1.
         21   -1    0    0  501  503 -0.00000000000E+00 -0.00000000000E+00 -0.21137496072E+03  0.21137496072E+03  0.00000000000E+00 0.  1.
          6    1    1    2  501    0  0.22489439218E+02 -0.40492570789E+02 -0.10763385737E+03  0.20894848748E+03  0.17300000000E+03 0.  1.
         -6    1    1    2    0  502 -0.22489439218E+02  0.40492570789E+02  0.97971855018E+02  0.20413943162E+03  0.17300000000E+03 0.  1.
<mgrwt>
<rscale>  2 0.17909334E+03</rscale>
<asrwt>0</asrwt>
<pdfrwt beam="1">  1       21 0.31032763E-01 0.17909334E+03</pdfrwt>
<pdfrwt beam="2">  1       21 0.32519225E-01 0.17909334E+03</pdfrwt>
<totfact> 0.91246625E+04</totfact>
</mgrwt>
</event>
<event>
 4    1  0.4263413E+000  0.1795915E+03  0.7546771E-02  0.1168199E+00
         21   -1    0    0  501  502  0.00000000000E+00  0.00000000000E+00  0.52866001571E+03  0.52866001571E+03  0.00000000000E+00 0.  1.
         21   -1    0    0  502  503 -0.00000000000E+00 -0.00000000000E+00 -0.18088081918E+03  0.18088081918E+03  0.00000000000E+00 0. -1.
          6    1    1    2  501    0  0.41059522645E+02 -0.25263288445E+02  0.46269768465E+03  0.49632878772E+03  0.17300000000E+03 0.  1.
         -6    1    1    2    0  503 -0.41059522645E+02  0.25263288445E+02 -0.11491848812E+03  0.21321204716E+03  0.17300000000E+03 0. -1.
<mgrwt>
<rscale>  2 0.17959153E+03</rscale>
<asrwt>0</asrwt>
<pdfrwt beam="1">  1       21 0.81332310E-01 0.17959153E+03</pdfrwt>
<pdfrwt beam="2">  1       21 0.27827818E-01 0.17959153E+03</pdfrwt>
<totfact> 0.16470910E+04</totfact>
</mgrwt>
</event>
<event>
 4    1  0.4263413E+000  0.2703444E+03  0.7546771E-02  0.1101083E+00
         21   -1    0    0  503  502  0.00000000000E+00  0.00000000000E+00  0.78016168938E+03  0.78016168938E+03  0.00000000000E+00 0. -1.
         21   -1    0    0  501  503 -0.00000000000E+00 -0.00000000000E+00 -0.94581622240E+02  0.94581622240E+02  0.00000000000E+00 0.  1.
          6    1    1    2  501    0 -0.19647180109E+03 -0.67497602320E+02  0.30010355159E+03  0.40391612572E+03  0.17300000000E+03 0. -1.
         -6    1    1    2    0  502  0.19647180109E+03  0.67497602320E+02  0.38547651555E+03  0.47082718590E+03  0.17300000000E+03 0. -1.
<mgrwt>
<rscale>  2 0.27034440E+03</rscale>
<asrwt>0</asrwt>
<pdfrwt beam="1">  1       21 0.12002487E+00 0.27034440E+03</pdfrwt>
<pdfrwt beam="2">  1       21 0.14551019E-01 0.27034440E+03</pdfrwt>
<totfact> 0.20966099E+04</totfact>
</mgrwt>
</event>
<event>
 4    1  0.4263413E+000  0.2059271E+03  0.7546771E-02  0.1144832E+00
         21   -1    0    0  503  502  0.00000000000E+00  0.00000000000E+00  0.25140149187E+03  0.25140149187E+03  0.00000000000E+00 0.  1.
         21   -1    0    0  501  503 -0.00000000000E+00 -0.00000000000E+00 -0.71580045754E+03  0.71580045754E+03  0.00000000000E+00 0.  1.
          6    1    1    2  501    0  0.11001941800E+03  0.19305256846E+02 -0.65499789799E+03  0.68660630033E+03  0.17300000000E+03 0.  1.
         -6    1    1    2    0  502 -0.11001941800E+03 -0.19305256846E+02  0.19059893233E+03  0.28059564908E+03  0.17300000000E+03 0.  1.
<mgrwt>
<rscale>  2 0.20592709E+03</rscale>
<asrwt>0</asrwt>
<pdfrwt beam="1">  1       21 0.38677153E-01 0.20592709E+03</pdfrwt>
<pdfrwt beam="2">  1       21 0.11012315E+00 0.20592709E+03</pdfrwt>
<totfact> 0.41532461E+03</totfact>
</mgrwt>
</event>
<event>
 4    1  0.4263413E+000  0.1755638E+03  0.7546771E-02  0.1172167E+00
         21   -1    0    0  501  502  0.00000000000E+00  0.00000000000E+00  0.46056066360E+03  0.46056066360E+03  0.00000000000E+00 0.  1.
         21   -1    0    0  502  503 -0.00000000000E+00 -0.00000000000E+00 -0.68575030023E+02  0.68575030023E+02  0.00000000000E+00 0.  1.
          6    1    1    2  501    0  0.18006041005E+02  0.23862995859E+02  0.23704190270E+03  0.29497715796E+03  0.17300000000E+03 0.  1.
         -6    1    1    2    0  503 -0.18006041005E+02 -0.23862995859E+02  0.15494373087E+03  0.23415853566E+03  0.17300000000E+03 0.  1.
<mgrwt>
<rscale>  2 0.17556383E+03</rscale>
<asrwt>0</asrwt>
<pdfrwt beam="1">  1       21 0.70855485E-01 0.17556383E+03</pdfrwt>
<pdfrwt beam="2">  1       21 0.10550005E-01 0.17556383E+03</pdfrwt>
<totfact> 0.13395068E+05</totfact>
</mgrwt>
</event>
<event>
 4    1  0.4263413E+000  0.2296097E+03  0.7546771E-02  0.1126915E+00
         21   -1    0    0  503  502  0.00000000000E+00  0.00000000000E+00  0.95289789895E+03  0.95289789895E+03  0.00000000000E+00 0. -1.
         21   -1    0    0  501  503 -0.00000000000E+00 -0.00000000000E+00 -0.20771486032E+03  0.20771486032E+03  0.00000000000E+00 0. -1.
          6    1    1    2  501    0  0.13158452824E+03  0.74007680334E+02 -0.12445756822E+03  0.26117103804E+03  0.17300000000E+03 0. -1.
         -6    1    1    2    0  502 -0.13158452824E+03 -0.74007680334E+02  0.86964060684E+03  0.89944172123E+03  0.17300000000E+03 0. -1.
<mgrwt>
<rscale>  2 0.22960972E+03</rscale>
<asrwt>0</asrwt>
<pdfrwt beam="1">  1       21 0.14659967E+00 0.22960972E+03</pdfrwt>
<pdfrwt beam="2">  1       21 0.31956133E-01 0.22960972E+03</pdfrwt>
<totfact> 0.28967471E+03</totfact>
</mgrwt>
</event>
<event>
 4    1  0.4263413E+000  0.2013177E+03  0.7546771E-02  0.1148632E+00
         21   -1    0    0  501  502  0.00000000000E+00  0.00000000000E+00  0.79382139954E+03  0.79382139954E+03  0.00000000000E+00 0. -1.
         21   -1    0    0  502  503 -0.00000000000E+00 -0.00000000000E+00 -0.62057641271E+02  0.62057641271E+02  0.00000000000E+00 0. -1.
          6    1    1    2  501    0  0.79351715117E+02 -0.65598142952E+02  0.54607026230E+03  0.58199788868E+03  0.17300000000E+03 0.  1.
         -6    1    1    2    0  503 -0.79351715117E+02  0.65598142952E+02  0.18569349596E+03  0.27388115213E+03  0.17300000000E+03 0.  1.
<mgrwt>
<rscale>  2 0.20131769E+03</rscale>
<asrwt>0</asrwt>
<pdfrwt beam="1">  1       21 0.12212636E+00 0.20131769E+03</pdfrwt>
<pdfrwt beam="2">  1       21 0.95473300E-02 0.20131769E+03</pdfrwt>
<totfact> 0.44303808E+04</totfact>
</mgrwt>
</event>
<event>
 4    1  0.4263413E+000  0.1982880E+03  0.7546771E-02  0.1151192E+00
         21   -1    0    0  503  502  0.00000000000E+00  0.00000000000E+00  0.68175867889E+03  0.68175867889E+03  0.00000000000E+00 0.  1.
         21   -1    0    0  501  503 -0.00000000000E+00 -0.00000000000E+00 -0.62303308024E+02  0.62303308024E+02  0.00000000000E+00 0. -1.
          6    1    1    2  501    0  0.96394225139E+02  0.98625755766E+01  0.20829126033E+03  0.28758192949E+03  0.17300000000E+03 0. -1.
         -6    1    1    2    0  502 -0.96394225139E+02 -0.98625755766E+01  0.41116411053E+03  0.45648005742E+03  0.17300000000E+03 0.  1.
<mgrwt>
<rscale>  2 0.19828796E+03</rscale>
<asrwt>0</asrwt>
<pdfrwt beam="1">  1       21 0.10488595E+00 0.19828796E+03</pdfrwt>
<pdfrwt beam="2">  1       21 0.95851248E-02 0.19828796E+03</pdfrwt>
<totfact> 0.63877886E+04</totfact>
</mgrwt>
</event>
<event>
 4    1  0.4263413E+000  0.1827522E+03  0.7546771E-02  0.1165166E+00
         21   -1    0    0  501  502  0.00000000000E+00  0.00000000000E+00  0.79668563340E+02  0.79668563340E+02  0.00000000000E+00 0.  1.
         21   -1    0    0  502  503 -0.00000000000E+00 -0.00000000000E+00 -0.44683318872E+03  0.44683318872E+03  0.00000000000E+00 0.  1.
          6    1    1    2  501    0 -0.22772976211E+02 -0.54320928598E+02 -0.11813627390E+03  0.21761100832E+03  0.17300000000E+03 0.  1.
         -6    1    1    2    0  503  0.22772976211E+02  0.54320928598E+02 -0.24902835147E+03  0.30889074374E+03  0.17300000000E+03 0.  1.
<mgrwt>
<rscale>  2 0.18275221E+03</rscale>
<asrwt>0</asrwt>
<pdfrwt beam="1">  1       21 0.12256702E-01 0.18275221E+03</pdfrwt>
<pdfrwt beam="2">  1       21 0.68743566E-01 0.18275221E+03</pdfrwt>
<totfact> 0.10935178E+05</totfact>
</mgrwt>
</event>
<event>
 4    1  0.4263413E+000  0.2023535E+03  0.7546771E-02  0.1147768E+00
         21   -1    0    0  503  502  0.00000000000E+00  0.00000000000E+00  0.11120607261E+03  0.11120607261E+03  0.00000000000E+00 0.  1.
         21   -1    0    0  501  503 -0.00000000000E+00 -0.00000000000E+00 -0.88442102022E+03  0.88442102022E+03  0.00000000000E+00 0.  1.
          6    1    1    2  501    0  0.34776292511E+02 -0.99038057554E+02 -0.76692978549E+03  0.79317603547E+03  0.17300000000E+03 0.  1.
         -6    1    1    2    0  502 -0.34776292511E+02  0.99038057554E+02 -0.62851621118E+01  0.20245105736E+03  0.17300000000E+03 0.  1.
<mgrwt>
<rscale>  2 0.20235347E+03</rscale>
<asrwt>0</asrwt>
<pdfrwt beam="1">  1       21 0.17108627E-01 0.20235347E+03</pdfrwt>
<pdfrwt beam="2">  1       21 0.13606477E+00 0.20235347E+03</pdfrwt>
<totfact> 0.11790094E+04</totfact>
</mgrwt>
</event>
<event>
 4    1  0.4263413E+000  0.1775644E+03  0.7546771E-02  0.1170181E+00
         21   -1    0    0  501  502  0.00000000000E+00  0.00000000000E+00  0.18342179450E+03  0.18342179450E+03  0.00000000000E+00 0. -1.
         21   -1    0    0  502  503 -0.00000000000E+00 -0.00000000000E+00 -0.19513300211E+03  0.19513300211E+03  0.00000000000E+00 0. -1.
          6    1    1    2  501    0  0.26323354884E+02 -0.30119878562E+02  0.59463633578E+02  0.18725664158E+03  0.17300000000E+03 0.  1.
         -6    1    1    2    0  503 -0.26323354884E+02  0.30119878562E+02 -0.71174841188E+02  0.19129815502E+03  0.17300000000E+03 0.  1.
<mgrwt>
<rscale>  2 0.17756443E+03</rscale>
<asrwt>0</asrwt>
<pdfrwt beam="1">  1       21 0.28218738E-01 0.17756443E+03</pdfrwt>
<pdfrwt beam="2">  1       21 0.30020462E-01 0.17756443E+03</pdfrwt>
<totfact> 0.12838268E+05</totfact>
</mgrwt>
</event>
<event>
 4    1  0.4263413E+000  0.1881812E+03  0.7546771E-02  0.1160112E+00
         21   -1    0    0  501  502  0.00000000000E+00  0.00000000000E+00  0.20550826710E+03  0.20550826710E+03  0.00000000000E+00 0. -1.
         21   -1    0    0  502  503 -0.00000000000E+00 -0.00000000000E+00 -0.31428811601E+03  0.31428811601E+03  0.00000000000E+00 0. -1.
          6    1    1    2  501    0  0.37818385195E+02 -0.63662690782E+02  0.12028970018E+03  0.22334229430E+03  0.17300000000E+03 0. -1.
         -6    1    1    2    0  503 -0.37818385195E+02  0.63662690782E+02 -0.22906954908E+03  0.29645408881E+03  0.17300000000E+03 0. -1.
<mgrwt>
<rscale>  2 0.18818121E+03</rscale>
<asrwt>0</asrwt>
<pdfrwt beam="1">  1       21 0.31616657E-01 0.18818121E+03</pdfrwt>
<pdfrwt beam="2">  1       21 0.48352018E-01 0.18818121E+03</pdfrwt>
<totfact> 0.39378954E+04</totfact>
</mgrwt>
</event>
<event>
 4    1  0.4263413E+000  0.2162643E+03  0.7546771E-02  0.1136699E+00
         21   -1    0    0  503  502  0.00000000000E+00  0.00000000000E+00  0.31020563082E+03  0.31020563082E+03  0.00000000000E+00 0. -1.
         21   -1    0    0  501  503 -0.00000000000E+00 -0.00000000000E+00 -0.16192851556E+03  0.16192851556E+03  0.00000000000E+00 0. -1.
          6    1    1    2  501    0  0.12086934376E+03 -0.47242460009E+02  0.13610302871E+03  0.25552745980E+03  0.17300000000E+03 0. -1.
         -6    1    1    2    0  502 -0.12086934376E+03  0.47242460009E+02  0.12174086540E+02  0.21660668658E+03  0.17300000000E+03 0. -1.
<mgrwt>
<rscale>  2 0.21626430E+03</rscale>
<asrwt>0</asrwt>
<pdfrwt beam="1">  1       21 0.47723943E-01 0.21626430E+03</pdfrwt>
<pdfrwt beam="2">  1       21 0.24912079E-01 0.21626430E+03</pdfrwt>
<totfact> 0.63335114E+04</totfact>
</mgrwt>
</event>
<event>
 4    1  0.4263413E+000  0.2147770E+03  0.7546771E-02  0.1137838E+00
         21   -1    0    0  501  502  0.00000000000E+00  0.00000000000E+00  0.31280504239E+03  0.31280504239E+03  0.00000000000E+00 0.  1.
         21   -1    0    0  502  503 -0.00000000000E+00 -0.00000000000E+00 -0.19044908321E+03  0.19044908321E+03  0.00000000000E+00 0. -1.
          6    1    1    2  501    0  0.68270056480E+01 -0.12709655611E+03  0.18071432773E+03  0.28068988373E+03  0.17300000000E+03 0.  1.
         -6    1    1    2    0  503 -0.68270056480E+01  0.12709655611E+03 -0.58358368552E+02  0.22256424188E+03  0.17300000000E+03 0. -1.
<mgrwt>
<rscale>  2 0.21477696E+03</rscale>
<asrwt>0</asrwt>
<pdfrwt beam="1">  1       21 0.48123853E-01 0.21477696E+03</pdfrwt>
<pdfrwt beam="2">  1       21 0.29299859E-01 0.21477696E+03</pdfrwt>
<totfact> 0.45536781E+04</totfact>
</mgrwt>
</event>
<event>
 4    1  0.4263413E+000  0.1814806E+03  0.7546771E-02  0.1166378E+00
         21   -1    0    0  501  502  0.00000000000E+00  0.00000000000E+00  0.59194187402E+03  0.59194187402E+03  0.00000000000E+00 0.  1.
         21   -1    0    0  502  503 -0.00000000000E+00 -0.00000000000E+00 -0.14658129763E+03  0.14658129763E+03  0.00000000000E+00 0.  1.
          6    1    1    2  501    0  0.50472479321E+02 -0.21418242413E+02  0.51353571538E+03  0.54465965818E+03  0.17300000000E+03 0.  1.
         -6    1    1    2    0  503 -0.50472479321E+02  0.21418242413E+02 -0.68175139001E+02  0.19386351347E+03  0.17300000000E+03 0.  1.
<mgrwt>
<rscale>  2 0.18148061E+03</rscale>
<asrwt>0</asrwt>
<pdfrwt beam="1">  1       21 0.91067980E-01 0.18148061E+03</pdfrwt>
<pdfrwt beam="2">  1       21 0.22550969E-01 0.18148061E+03</pdfrwt>
<totfact> 0.18963180E+04</totfact>
</mgrwt>
</event>
<event>
 4    1  0.4263413E+000  0.1973631E+03  0.7546771E-02  0.1151983E+00
         21   -1    0    0  501  502  0.00000000000E+00  0.00000000000E+00  0.29330820843E+02  0.29330820843E+02  0.00000000000E+00 0.  1.
         21   -1    0    0  502  503 -0.00000000000E+00 -0.00000000000E+00 -0.14616942088E+04  0.14616942088E+04  0.00000000000E+00 0. -1.
          6    1    1    2  501    0  0.80340903015E+02  0.50680846500E+02 -0.94162342082E+03  0.96208465092E+03  0.17300000000E+03 0. -1.
         -6    1    1    2    0  503 -0.80340903015E+02 -0.50680846500E+02 -0.49073996716E+03  0.52894037874E+03  0.17300000000E+03 0.  1.
<mgrwt>
<rscale>  2 0.19736314E+03</rscale>
<asrwt>0</asrwt>
<pdfrwt beam="1">  1       21 0.45124339E-02 0.19736314E+03</pdfrwt>
<pdfrwt beam="2">  1       21 0.22487604E+00 0.19736314E+03</pdfrwt>
<totfact> 0.29944934E+04</totfact>
</mgrwt>
</event>
<event>
 4    1  0.4263413E+000  0.2742261E+03  0.7546771E-02  0.1098885E+00
         21   -1    0    0  501  502  0.00000000000E+00  0.00000000000E+00  0.16427508910E+04  0.16427508910E+04  0.00000000000E+00 0.  1.
         21   -1    0    0  502  503 -0.00000000000E+00 -0.00000000000E+00 -0.69564465333E+02  0.69564465333E+02  0.00000000000E+00 0.  1.
          6    1    1    2  501    0  0.73803081367E+02  0.19955965552E+03  0.12872447342E+04  0.13161302962E+04  0.17300000000E+03 0.  1.
         -6    1    1    2    0  503 -0.73803081367E+02 -0.19955965552E+03  0.28594169147E+03  0.39618506010E+03  0.17300000000E+03 0.  1.
<mgrwt>
<rscale>  2 0.27422609E+03</rscale>
<asrwt>0</asrwt>
<pdfrwt beam="1">  1       21 0.25273088E+00 0.27422609E+03</pdfrwt>
<pdfrwt beam="2">  1       21 0.10702227E-01 0.27422609E+03</pdfrwt>
<totfact> 0.42861904E+03</totfact>
</mgrwt>
</event>
<event>
 4    1  0.4263413E+000  0.2439893E+03  0.7546771E-02  0.1117163E+00
         21   -1    0    0  501  502  0.00000000000E+00  0.00000000000E+00  0.11444234450E+03  0.11444234450E+03  0.00000000000E+00 0.  1.
         21   -1    0    0  502  503 -0.00000000000E+00 -0.00000000000E+00 -0.69621375066E+03  0.69621375066E+03  0.00000000000E+00 0.  1.
          6    1    1    2  501    0 -0.15209646215E+03 -0.80426756485E+02 -0.49469848124E+03  0.55159530845E+03  0.17300000000E+03 0.  1.
         -6    1    1    2    0  503  0.15209646215E+03  0.80426756485E+02 -0.87072924919E+02  0.25906078671E+03  0.17300000000E+03 0.  1.
<mgrwt>
<rscale>  2 0.24398934E+03</rscale>
<asrwt>0</asrwt>
<pdfrwt beam="1">  1       21 0.17606515E-01 0.24398934E+03</pdfrwt>
<pdfrwt beam="2">  1       21 0.10710981E+00 0.24398934E+03</pdfrwt>
<totfact> 0.19773532E+04</totfact>
</mgrwt>
</event>
<event>
 4    1  0.4263413E+000  0.2289734E+03  0.7546771E-02  0.1127364E+00
         21   -1    0    0  501  502  0.00000000000E+00  0.00000000000E+00  0.15785190634E+04  0.15785190634E+04  0.00000000000E+00 0.  1.
         21   -1    0    0  502  503 -0.00000000000E+00 -0.00000000000E+00 -0.93750026226E+02  0.93750026226E+02  0.00000000000E+00 0.  1.
          6    1    1    2  501    0  0.57408644363E+02  0.13857871125E+03  0.14142737740E+04  0.14326894707E+04  0.17300000000E+03 0.  1.
         -6    1    1    2    0  503 -0.57408644363E+02 -0.13857871125E+03  0.70495263141E+02  0.23957961888E+03  0.17300000000E+03 0.  1.
<mgrwt>
<rscale>  2 0.22897339E+03</rscale>
<asrwt>0</asrwt>
<pdfrwt beam="1">  1       21 0.24284907E+00 0.22897339E+03</pdfrwt>
<pdfrwt beam="2">  1       21 0.14423082E-01 0.22897339E+03</pdfrwt>
<totfact> 0.29755798E+03</totfact>
</mgrwt>
</event>
<event>
 4    1  0.4263413E+000  0.2178958E+03  0.7546771E-02  0.1135462E+00
         21   -1    0    0  501  502  0.00000000000E+00  0.00000000000E+00  0.27782516165E+02  0.27782516165E+02  0.00000000000E+00 0.  1.
         21   -1    0    0  502  503 -0.00000000000E+00 -0.00000000000E+00 -0.18042430177E+04  0.18042430177E+04  0.00000000000E+00 0. -1.
          6    1    1    2  501    0 -0.25612253268E+02 -0.12997532170E+03 -0.67770024007E+03  0.71186809674E+03  0.17300000000E+03 0.  1.
         -6    1    1    2    0  503  0.25612253268E+02  0.12997532170E+03 -0.10987602615E+04  0.11201574371E+04  0.17300000000E+03 0. -1.
<mgrwt>
<rscale>  2 0.21789578E+03</rscale>
<asrwt>0</asrwt>
<pdfrwt beam="1">  1       21 0.42742335E-02 0.21789578E+03</pdfrwt>
<pdfrwt beam="2">  1       21 0.27757583E+00 0.21789578E+03</pdfrwt>
<totfact> 0.15738382E+04</totfact>
</mgrwt>
</event>
<event>
 4    1  0.4263413E+000  0.1889739E+03  0.7546771E-02  0.1159390E+00
         21   -1    0    0  501  502  0.00000000000E+00  0.00000000000E+00  0.53108645896E+02  0.53108645896E+02  0.00000000000E+00 0.  1.
         21   -1    0    0  502  503 -0.00000000000E+00 -0.00000000000E+00 -0.86377073471E+03  0.86377073471E+03  0.00000000000E+00 0.  1.
          6    1    1    2  501    0 -0.88176694550E+01  0.75527357929E+02 -0.18955564160E+03  0.26766111849E+03  0.17300000000E+03 0.  1.
         -6    1    1    2    0  503  0.88176694550E+01 -0.75527357929E+02 -0.62110644721E+03  0.64921826211E+03  0.17300000000E+03 0.  1.
<mgrwt>
<rscale>  2 0.18897390E+03</rscale>
<asrwt>0</asrwt>
<pdfrwt beam="1">  1       21 0.81705616E-02 0.18897390E+03</pdfrwt>
<pdfrwt beam="2">  1       21 0.13288779E+00 0.18897390E+03</pdfrwt>
<totfact> 0.47391446E+04</totfact>
</mgrwt>
</event>
<event>
 4    1  0.4263413E+000  0.2150885E+03  0.7546771E-02  0.1137599E+00
         21   -1    0    0  503  502  0.00000000000E+00  0.00000000000E+00  0.75681405623E+02  0.75681405623E+02  0.00000000000E+00 0.  1.
         21   -1    0    0  501  503 -0.00000000000E+00 -0.00000000000E+00 -0.68101331211E+03  0.68101331211E+03  0.00000000000E+00 0.  1.
          6    1    1    2  501    0 -0.30356863229E+02  0.12414724125E+03 -0.42372870568E+03  0.47519374225E+03  0.17300000000E+03 0.  1.
         -6    1    1    2    0  502  0.30356863229E+02 -0.12414724125E+03 -0.18160320081E+03  0.28150097548E+03  0.17300000000E+03 0.  1.
<mgrwt>
<rscale>  2 0.21508853E+03</rscale>
<asrwt>0</asrwt>
<pdfrwt beam="1">  1       21 0.11643294E-01 0.21508853E+03</pdfrwt>
<pdfrwt beam="2">  1       21 0.10477128E+00 0.21508853E+03</pdfrwt>
<totfact> 0.44959909E+04</totfact>
</mgrwt>
</event>
<event>
 4    1  0.4263413E+000  0.1894005E+03  0.7546771E-02  0.1159003E+00
         21   -1    0    0  503  502  0.00000000000E+00  0.00000000000E+00  0.36054984616E+02  0.36054984616E+02  0.00000000000E+00 0.  1.
         21   -1    0    0  501  503 -0.00000000000E+00 -0.00000000000E+00 -0.11473562448E+04  0.11473562448E+04  0.00000000000E+00 0.  1.
          6    1    1    2  501    0  0.24642406151E+02 -0.73050069060E+02 -0.77131162725E+03  0.79422552660E+03  0.17300000000E+03 0.  1.
         -6    1    1    2    0  502 -0.24642406151E+02  0.73050069060E+02 -0.33998963290E+03  0.38918570278E+03  0.17300000000E+03 0.  1.
<mgrwt>
<rscale>  2 0.18940053E+03</rscale>
<asrwt>0</asrwt>
<pdfrwt beam="1">  1       21 0.55469209E-02 0.18940053E+03</pdfrwt>
<pdfrwt beam="2">  1       21 0.17651634E+00 0.18940053E+03</pdfrwt>
<totfact> 0.43431707E+04</totfact>
</mgrwt>
</event>
<event>
 4    1  0.4263413E+000  0.1846970E+03  0.7546771E-02  0.1163333E+00
         21   -1    0    0  501  502  0.00000000000E+00  0.00000000000E+00  0.95304245415E+03  0.95304245415E+03  0.00000000000E+00 0. -1.
         21   -1    0    0  502  503 -0.00000000000E+00 -0.00000000000E+00 -0.36207240428E+02  0.36207240428E+02  0.00000000000E+00 0. -1.
          6    1    1    2  501    0 -0.17370429274E+02  0.62307641956E+02  0.51127491497E+03  0.54361292547E+03  0.17300000000E+03 0. -1.
         -6    1    1    2    0  503  0.17370429274E+02 -0.62307641956E+02  0.40556029876E+03  0.44563676911E+03  0.17300000000E+03 0. -1.
<mgrwt>
<rscale>  2 0.18469698E+03</rscale>
<asrwt>0</asrwt>
<pdfrwt beam="1">  1       21 0.14662190E+00 0.18469698E+03</pdfrwt>
<pdfrwt beam="2">  1       21 0.55703454E-02 0.18469698E+03</pdfrwt>
<totfact> 0.71322660E+04</totfact>
</mgrwt>
</event>
<event>
 4    1  0.4263413E+000  0.2626817E+03  0.7546771E-02  0.1105543E+00
         21   -1    0    0  503  502  0.00000000000E+00  0.00000000000E+00  0.44833901685E+03  0.44833901685E+03  0.00000000000E+00 0.  1.
         21   -1    0    0  501  503 -0.00000000000E+00 -0.00000000000E+00 -0.15908899378E+03  0.15908899378E+03  0.00000000000E+00 0. -1.
          6    1    1    2  501    0 -0.16684990401E+02 -0.19696262734E+03  0.89800799057E+02  0.27760736478E+03  0.17300000000E+03 0. -1.
         -6    1    1    2    0  502  0.16684990401E+02  0.19696262734E+03  0.19944922401E+03  0.32982064585E+03  0.17300000000E+03 0.  1.
<mgrwt>
<rscale>  2 0.26268168E+03</rscale>
<asrwt>0</asrwt>
<pdfrwt beam="1">  1       21 0.68975233E-01 0.26268168E+03</pdfrwt>
<pdfrwt beam="2">  1       21 0.24475230E-01 0.26268168E+03</pdfrwt>
<totfact> 0.29161075E+04</totfact>
</mgrwt>
</event>
<event>
 4    1  0.4263413E+000  0.2015112E+03  0.7546771E-02  0.1148470E+00
         21   -1    0    0  503  502  0.00000000000E+00  0.00000000000E+00  0.50281105985E+03  0.50281105985E+03  0.00000000000E+00 0. -1.
         21   -1    0    0  501  503 -0.00000000000E+00 -0.00000000000E+00 -0.17525124539E+03  0.17525124539E+03  0.00000000000E+00 0. -1.
          6    1    1    2  501    0  0.18565127400E+02 -0.10165178101E+03 -0.85166625761E+02  0.21876951954E+03  0.17300000000E+03 0. -1.
         -6    1    1    2    0  502 -0.18565127400E+02  0.10165178101E+03  0.41272644022E+03  0.45929278569E+03  0.17300000000E+03 0. -1.
<mgrwt>
<rscale>  2 0.20151116E+03</rscale>
<asrwt>0</asrwt>
<pdfrwt beam="1">  1       21 0.77355547E-01 0.20151116E+03</pdfrwt>
<pdfrwt beam="2">  1       21 0.26961730E-01 0.20151116E+03</pdfrwt>
<totfact> 0.19336671E+04</totfact>
</mgrwt>
</event>
<event>
 4    1  0.4263413E+000  0.1912905E+03  0.7546771E-02  0.1157303E+00
         21   -1    0    0  501  502  0.00000000000E+00  0.00000000000E+00  0.54570795324E+02  0.54570795324E+02  0.00000000000E+00 0. -1.
         21   -1    0    0  502  503 -0.00000000000E+00 -0.00000000000E+00 -0.67079254360E+03  0.67079254360E+03  0.00000000000E+00 0.  1.
          6    1    1    2  501    0 -0.95537638940E+01 -0.81066534162E+02 -0.30111368889E+03  0.35673731372E+03  0.17300000000E+03 0. -1.
         -6    1    1    2    0  503  0.95537638940E+01  0.81066534162E+02 -0.31510805939E+03  0.36862602521E+03  0.17300000000E+03 0.  1.
<mgrwt>
<rscale>  2 0.19129051E+03</rscale>
<asrwt>0</asrwt>
<pdfrwt beam="1">  1       21 0.83955071E-02 0.19129051E+03</pdfrwt>
<pdfrwt beam="2">  1       21 0.10319885E+00 0.19129051E+03</pdfrwt>
<totfact> 0.84067369E+04</totfact>
</mgrwt>
</event>
<event>
 4    1  0.4263413E+000  0.2005583E+03  0.7546771E-02  0.1149269E+00
         21   -1    0    0  503  502  0.00000000000E+00  0.00000000000E+00  0.28753891134E+03  0.28753891134E+03  0.00000000000E+00 0.  1.
         21   -1    0    0  501  503 -0.00000000000E+00 -0.00000000000E+00 -0.14826876103E+03  0.14826876103E+03  0.00000000000E+00 0.  1.
          6    1    1    2  501    0  0.68841068876E+02 -0.74535600478E+02  0.17833227157E+02  0.20134962750E+03  0.17300000000E+03 0.  1.
         -6    1    1    2    0  502 -0.68841068876E+02  0.74535600478E+02  0.12143692315E+03  0.23445804488E+03  0.17300000000E+03 0.  1.
<mgrwt>
<rscale>  2 0.20055834E+03</rscale>
<asrwt>0</asrwt>
<pdfrwt beam="1">  1       21 0.44236756E-01 0.20055834E+03</pdfrwt>
<pdfrwt beam="2">  1       21 0.22810579E-01 0.20055834E+03</pdfrwt>
<totfact> 0.88188371E+04</totfact>
</mgrwt>
</event>
<event>
 4    1  0.4263413E+000  0.2950753E+03  0.7546771E-02  0.1087729E+00
         21   -1    0    0  503  502  0.00000000000E+00  0.00000000000E+00  0.19218878827E+03  0.19218878827E+03  0.00000000000E+00 0. -1.
         21   -1    0    0  501  503 -0.00000000000E+00 -0.00000000000E+00 -0.47499744269E+03  0.47499744269E+03  0.00000000000E+00 0.  1.
          6    1    1    2  501    0 -0.23903649638E+03 -0.14090646196E+01 -0.21312606854E+03  0.36399471584E+03  0.17300000000E+03 0. -1.
         -6    1    1    2    0  502  0.23903649638E+03  0.14090646196E+01 -0.69682585880E+02  0.30319151512E+03  0.17300000000E+03 0.  1.
<mgrwt>
<rscale>  2 0.29507530E+03</rscale>
<asrwt>0</asrwt>
<pdfrwt beam="1">  1       21 0.29567506E-01 0.29507530E+03</pdfrwt>
<pdfrwt beam="2">  1       21 0.73076529E-01 0.29507530E+03</pdfrwt>
<totfact> 0.17518171E+04</totfact>
</mgrwt>
</event>
<event>
 4    1  0.4263413E+000  0.1984110E+03  0.7546771E-02  0.1151087E+00
         21   -1    0    0  503  502  0.00000000000E+00  0.00000000000E+00  0.41030242345E+03  0.41030242345E+03  0.00000000000E+00 0.  1.
         21   -1    0    0  501  503 -0.00000000000E+00 -0.00000000000E+00 -0.10642458832E+03  0.10642458832E+03  0.00000000000E+00 0. -1.
          6    1    1    2  501    0 -0.69928455448E+02  0.67438489346E+02  0.70869245384E+02  0.21068789398E+03  0.17300000000E+03 0.  1.
         -6    1    1    2    0  502  0.69928455448E+02 -0.67438489346E+02  0.23300858974E+03  0.30603911779E+03  0.17300000000E+03 0.  1.
<mgrwt>
<rscale>  2 0.19841103E+03</rscale>
<asrwt>0</asrwt>
<pdfrwt beam="1">  1       21 0.63123449E-01 0.19841103E+03</pdfrwt>
<pdfrwt beam="2">  1       21 0.16373014E-01 0.19841103E+03</pdfrwt>
<totfact> 0.77440838E+04</totfact>
</mgrwt>
</event>
<event>
 4    1  0.4263413E+000  0.3616505E+03  0.7546771E-02  0.1057932E+00
         21   -1    0    0  501  502  0.00000000000E+00  0.00000000000E+00  0.35574191828E+03  0.35574191828E+03  0.00000000000E+00 0.  1.
         21   -1    0    0  502  503 -0.00000000000E+00 -0.00000000000E+00 -0.36920890708E+03  0.36920890708E+03  0.00000000000E+00 0. -1.
          6    1    1    2  501    0 -0.31648253308E+03  0.26474327244E+02 -0.30232252956E+02  0.36291193542E+03  0.17300000000E+03 0.  1.
         -6    1    1    2    0  503  0.31648253308E+03 -0.26474327244E+02  0.16765264154E+02  0.36203888994E+03  0.17300000000E+03 0.  1.
<mgrwt>
<rscale>  2 0.36165050E+03</rscale>
<asrwt>0</asrwt>
<pdfrwt beam="1">  1       21 0.54729526E-01 0.36165050E+03</pdfrwt>
<pdfrwt beam="2">  1       21 0.56801370E-01 0.36165050E+03</pdfrwt>
<totfact> 0.84102141E+03</totfact>
</mgrwt>
</event>
<event>
 4    1  0.4263413E+000  0.2033742E+03  0.7546771E-02  0.1146923E+00
         21   -1    0    0  503  502  0.00000000000E+00  0.00000000000E+00  0.59123117408E+03  0.59123117408E+03  0.00000000000E+00 0. -1.
         21   -1    0    0  501  503 -0.00000000000E+00 -0.00000000000E+00 -0.11846095523E+03  0.11846095523E+03  0.00000000000E+00 0. -1.
          6    1    1    2  501    0 -0.71433220045E+02 -0.79557286585E+02  0.93261587409E+01  0.20358792698E+03  0.17300000000E+03 0. -1.
         -6    1    1    2    0  502  0.71433220045E+02  0.79557286585E+02  0.46344406011E+03  0.50610420234E+03  0.17300000000E+03 0. -1.
<mgrwt>
<rscale>  2 0.20337420E+03</rscale>
<asrwt>0</asrwt>
<pdfrwt beam="1">  1       21 0.90958640E-01 0.20337420E+03</pdfrwt>
<pdfrwt beam="2">  1       21 0.18224763E-01 0.20337420E+03</pdfrwt>
<totfact> 0.27954503E+04</totfact>
</mgrwt>
</event>
<event>
 4    1  0.4263413E+000  0.1936664E+03  0.7546771E-02  0.1155195E+00
         21   -1    0    0  501  502  0.00000000000E+00  0.00000000000E+00  0.32681452635E+02  0.32681452635E+02  0.00000000000E+00 0. -1.
         21   -1    0    0  502  503 -0.00000000000E+00 -0.00000000000E+00 -0.11476571025E+04  0.11476571025E+04  0.00000000000E+00 0. -1.
          6    1    1    2  501    0  0.31883278358E+02  0.81000901327E+02 -0.55553234765E+03  0.58832208758E+03  0.17300000000E+03 0. -1.
         -6    1    1    2    0  503 -0.31883278358E+02 -0.81000901327E+02 -0.55944330217E+03  0.59201646750E+03  0.17300000000E+03 0. -1.
<mgrwt>
<rscale>  2 0.19366644E+03</rscale>
<asrwt>0</asrwt>
<pdfrwt beam="1">  1       21 0.50279171E-02 0.19366644E+03</pdfrwt>
<pdfrwt beam="2">  1       21 0.17656259E+00 0.19366644E+03</pdfrwt>
<totfact> 0.51155220E+04</totfact>
</mgrwt>
</event>
<event>
 4    1  0.4263413E+000  0.1914522E+03  0.7546771E-02  0.1157158E+00
         21   -1    0    0  503  502  0.00000000000E+00  0.00000000000E+00  0.63917759345E+03  0.63917759345E+03  0.00000000000E+00 0. -1.
         21   -1    0    0  501  503 -0.00000000000E+00 -0.00000000000E+00 -0.57481846724E+02  0.57481846724E+02  0.00000000000E+00 0. -1.
          6    1    1    2  501    0  0.71530402325E+02  0.40104352566E+02  0.30781273619E+03  0.36249501805E+03  0.17300000000E+03 0. -1.
         -6    1    1    2    0  502 -0.71530402325E+02 -0.40104352566E+02  0.27388301054E+03  0.33416442212E+03  0.17300000000E+03 0. -1.
<mgrwt>
<rscale>  2 0.19145223E+03</rscale>
<asrwt>0</asrwt>
<pdfrwt beam="1">  1       21 0.98335009E-01 0.19145223E+03</pdfrwt>
<pdfrwt beam="2">  1       21 0.88433615E-02 0.19145223E+03</pdfrwt>
<totfact> 0.86096331E+04</totfact>
</mgrwt>
</event>
<event>
 4    1  0.4263413E+000  0.1987156E+03  0.7546771E-02  0.1150827E+00
         21   -1    0    0  501  502  0.00000000000E+00  0.00000000000E+00  0.34429631336E+02  0.34429631336E+02  0.00000000000E+00 0.  1.
         21   -1    0    0  502  503 -0.00000000000E+00 -0.00000000000E+00 -0.11642197270E+04  0.11642197270E+04  0.00000000000E+00 0.  1.
          6    1    1    2  501    0 -0.34128524579E+02  0.91619537071E+02 -0.49182922942E+03  0.53045630044E+03  0.17300000000E+03 0.  1.
         -6    1    1    2    0  503  0.34128524579E+02 -0.91619537071E+02 -0.63796086626E+03  0.66819305791E+03  0.17300000000E+03 0.  1.
<mgrwt>
<rscale>  2 0.19871562E+03</rscale>
<asrwt>0</asrwt>
<pdfrwt beam="1">  1       21 0.52968656E-02 0.19871562E+03</pdfrwt>
<pdfrwt beam="2">  1       21 0.17911075E+00 0.19871562E+03</pdfrwt>
<totfact> 0.44831647E+04</totfact>
</mgrwt>
</event>
<event>
 4    1  0.4263413E+000  0.2433286E+03  0.7546771E-02  0.1117595E+00
         21   -1    0    0  503  502  0.00000000000E+00  0.00000000000E+00  0.12820434864E+03  0.12820434864E+03  0.00000000000E+00 0.  1.
         21   -1    0    0  501  503 -0.00000000000E+00 -0.00000000000E+00 -0.63894779384E+03  0.63894779384E+03  0.00000000000E+00 0.  1.
          6    1    1    2  501    0 -0.34197734837E+02  0.16766128088E+03 -0.45732375797E+03  0.51802877312E+03  0.17300000000E+03 0.  1.
         -6    1    1    2    0  502  0.34197734837E+02 -0.16766128088E+03 -0.53419687222E+02  0.24912336935E+03  0.17300000000E+03 0.  1.
<mgrwt>
<rscale>  2 0.24332856E+03</rscale>
<asrwt>0</asrwt>
<pdfrwt beam="1">  1       21 0.19723746E-01 0.24332856E+03</pdfrwt>
<pdfrwt beam="2">  1       21 0.98299661E-01 0.24332856E+03</pdfrwt>
<totfact> 0.19673948E+04</totfact>
</mgrwt>
</event>
<event>
 4    1  0.4263413E+000  0.1797795E+03  0.7546771E-02  0.1168017E+00
         21   -1    0    0  501  502  0.00000000000E+00  0.00000000000E+00  0.50926346285E+03  0.50926346285E+03  0.00000000000E+00 0. -1.
         21   -1    0    0  502  503 -0.00000000000E+00 -0.00000000000E+00 -0.11402020341E+03  0.11402020341E+03  0.00000000000E+00 0. -1.
          6    1    1    2  501    0 -0.37687458937E+02 -0.31165868239E+02  0.40513479985E+03  0.44323228894E+03  0.17300000000E+03 0. -1.
         -6    1    1    2    0  503  0.37687458937E+02  0.31165868239E+02 -0.98915404138E+01  0.18005137732E+03  0.17300000000E+03 0. -1.
<mgrwt>
<rscale>  2 0.17977946E+03</rscale>
<asrwt>0</asrwt>
<pdfrwt beam="1">  1       21 0.78348224E-01 0.17977946E+03</pdfrwt>
<pdfrwt beam="2">  1       21 0.17541570E-01 0.17977946E+03</pdfrwt>
<totfact> 0.42725988E+04</totfact>
</mgrwt>
</event>
<event>
 4    1  0.4263413E+000  0.2001565E+03  0.7546771E-02  0.1149607E+00
         21   -1    0    0  503  502  0.00000000000E+00  0.00000000000E+00  0.39791770355E+03  0.39791770355E+03  0.00000000000E+00 0. -1.
         21   -1    0    0  501  503 -0.00000000000E+00 -0.00000000000E+00 -0.13052485214E+03  0.13052485214E+03  0.00000000000E+00 0. -1.
          6    1    1    2  501    0 -0.92459197289E+02 -0.39810979522E+02  0.73534524383E+01  0.20029151384E+03  0.17300000000E+03 0. -1.
         -6    1    1    2    0  502  0.92459197289E+02  0.39810979522E+02  0.26003939897E+03  0.32815104186E+03  0.17300000000E+03 0. -1.
<mgrwt>
<rscale>  2 0.20015648E+03</rscale>
<asrwt>0</asrwt>
<pdfrwt beam="1">  1       21 0.61218108E-01 0.20015648E+03</pdfrwt>
<pdfrwt beam="2">  1       21 0.20080747E-01 0.20015648E+03</pdfrwt>
<totfact> 0.56649662E+04</totfact>
</mgrwt>
</event>
<event>
 4    1  0.4263413E+000  0.1744951E+03  0.7546771E-02  0.1173240E+00
         21   -1    0    0  503  502  0.00000000000E+00  0.00000000000E+00  0.32723439590E+04  0.32723439590E+04  0.00000000000E+00 0. -1.
         21   -1    0    0  501  503 -0.00000000000E+00 -0.00000000000E+00 -0.18916889887E+02  0.18916889887E+02  0.00000000000E+00 0. -1.
          6    1    1    2  501    0  0.21056988779E+02 -0.87267264281E+01  0.45366486568E+03  0.48606621244E+03  0.17300000000E+03 0. -1.
         -6    1    1    2    0  502 -0.21056988779E+02  0.87267264281E+01  0.27997622034E+04  0.28051946365E+04  0.17300000000E+03 0. -1.
<mgrwt>
<rscale>  2 0.17449514E+03</rscale>
<asrwt>0</asrwt>
<pdfrwt beam="1">  1       21 0.50343708E+00 0.17449514E+03</pdfrwt>
<pdfrwt beam="2">  1       21 0.29102934E-02 0.17449514E+03</pdfrwt>
<totfact> 0.12280711E+03</totfact>
</mgrwt>
</event>
<event>
 4    1  0.4263413E+000  0.2703399E+03  0.7546771E-02  0.1101085E+00
         21   -1    0    0  501  502  0.00000000000E+00  0.00000000000E+00  0.18834174710E+03  0.18834174710E+03  0.00000000000E+00 0. -1.
         21   -1    0    0  502  503 -0.00000000000E+00 -0.00000000000E+00 -0.54125683377E+03  0.54125683377E+03  0.00000000000E+00 0.  1.
          6    1    1    2  501    0  0.12709404718E+03  0.16432220770E+03  0.17635018422E+02  0.27091452277E+03  0.17300000000E+03 0. -1.
         -6    1    1    2    0  503 -0.12709404718E+03 -0.16432220770E+03 -0.37055010510E+03  0.45868405810E+03  0.17300000000E+03 0.  1.
<mgrwt>
<rscale>  2 0.27033994E+03</rscale>
<asrwt>0</asrwt>
<pdfrwt beam="1">  1       21 0.28975654E-01 0.27033994E+03</pdfrwt>
<pdfrwt beam="2">  1       21 0.83270282E-01 0.27033994E+03</pdfrwt>
<totfact> 0.13697939E+04</totfact>
</mgrwt>
</event>
<event>
 4    1  0.4263413E+000  0.3602368E+03  0.7546771E-02  0.1058490E+00
         21   -1    0    0  503  502  0.00000000000E+00  0.00000000000E+00  0.82659612418E+03  0.82659612418E+03  0.00000000000E+00 0.  1.
         21   -1    0    0  501  503 -0.00000000000E+00 -0.00000000000E+00 -0.58405868115E+03  0.58405868115E+03  0.00000000000E+00 0. -1.
          6    1    1    2  501    0  0.29249757203E+03  0.11952718659E+03 -0.48185911957E+03  0.60163010986E+03  0.17300000000E+03 0. -1.
         -6    1    1    2    0  502 -0.29249757203E+03 -0.11952718659E+03  0.72439656260E+03  0.80902469547E+03  0.17300000000E+03 0.  1.
<mgrwt>
<rscale>  2 0.36023684E+03</rscale>
<asrwt>0</asrwt>
<pdfrwt beam="1">  1       21 0.12716863E+00 0.36023684E+03</pdfrwt>
<pdfrwt beam="2">  1       21 0.89855182E-01 0.36023684E+03</pdfrwt>
<totfact> 0.42002159E+02</totfact>
</mgrwt>
</event>
<event>
 4    1  0.4263413E+000  0.3533732E+03  0.7546771E-02  0.1061239E+00
         21   -1    0    0  501  502  0.00000000000E+00  0.00000000000E+00  0.27478594892E+03  0.27478594892E+03  0.00000000000E+00 0.  1.
         21   -1    0    0  502  503 -0.00000000000E+00 -0.00000000000E+00 -0.19280718725E+04  0.19280718725E+04  0.00000000000E+00 0. -1.
          6    1    1    2  501    0 -0.29920404428E+03 -0.73624651096E+02  0.13627645261E+03  0.37873991194E+03  0.17300000000E+03 0.  1.
         -6    1    1    2    0  503  0.29920404428E+03  0.73624651096E+02 -0.17895623762E+04  0.18241179095E+04  0.17300000000E+03 0. -1.
<mgrwt>
<rscale>  2 0.35337324E+03</rscale>
<asrwt>0</asrwt>
<pdfrwt beam="1">  1       21 0.42274762E-01 0.35337324E+03</pdfrwt>
<pdfrwt beam="2">  1       21 0.29662644E+00 0.35337324E+03</pdfrwt>
<totfact> 0.16053957E+02</totfact>
</mgrwt>
</event>
<event>
 4    1  0.4263413E+000  0.1765007E+03  0.7546771E-02  0.1171233E+00
         21   -1    0    0  503  502  0.00000000000E+00  0.00000000000E+00  0.33866560467E+03  0.33866560467E+03  0.00000000000E+00 0. -1.
         21   -1    0    0  501  503 -0.00000000000E+00 -0.00000000000E+00 -0.49187842041E+03  0.49187842041E+03  0.00000000000E+00 0. -1.
          6    1    1    2  501    0 -0.32872253070E+01 -0.34823876305E+02 -0.45104046334E+03  0.48434492646E+03  0.17300000000E+03 0. -1.
         -6    1    1    2    0  502  0.32872253070E+01  0.34823876305E+02  0.29782764760E+03  0.34619909862E+03  0.17300000000E+03 0. -1.
<mgrwt>
<rscale>  2 0.17650073E+03</rscale>
<asrwt>0</asrwt>
<pdfrwt beam="1">  1       21 0.52102401E-01 0.17650073E+03</pdfrwt>
<pdfrwt beam="2">  1       21 0.75673603E-01 0.17650073E+03</pdfrwt>
<totfact> 0.55179318E+03</totfact>
</mgrwt>
</event>
<event>
 4    1  0.4263413E+000  0.2796351E+03  0.7546771E-02  0.1095888E+00
         21   -1    0    0  503  502  0.00000000000E+00  0.00000000000E+00  0.42424502874E+02  0.42424502874E+02  0.00000000000E+00 0. -1.
         21   -1    0    0  501  503 -0.00000000000E+00 -0.00000000000E+00 -0.20255117801E+04  0.20255117801E+04  0.00000000000E+00 0.  1.
          6    1    1    2  501    0  0.20891367376E+03  0.67984250824E+02 -0.13017687560E+04  0.13314644853E+04  0.17300000000E+03 0.  1.
         -6    1    1    2    0  502 -0.20891367376E+03 -0.67984250824E+02 -0.68131852122E+03  0.73647179770E+03  0.17300000000E+03 0. -1.
<mgrwt>
<rscale>  2 0.27963509E+03</rscale>
<asrwt>0</asrwt>
<pdfrwt beam="1">  1       21 0.65268445E-02 0.27963509E+03</pdfrwt>
<pdfrwt beam="2">  1       21 0.31161730E+00 0.27963509E+03</pdfrwt>
<totfact> 0.45809454E+03</totfact>
</mgrwt>
</event>
<event>
 4    1  0.4263413E+000  0.2860092E+03  0.7546771E-02  0.1092451E+00
         21   -1    0    0  503  502  0.00000000000E+00  0.00000000000E+00  0.73276791966E+03  0.73276791966E+03  0.00000000000E+00 0. -1.
         21   -1    0    0  501  503 -0.00000000000E+00 -0.00000000000E+00 -0.32556403664E+03  0.32556403664E+03  0.00000000000E+00 0.  1.
          6    1    1    2  501    0 -0.28853966762E+02  0.22591973183E+03 -0.22535167026E+03  0.36412175425E+03  0.17300000000E+03 0.  1.
         -6    1    1    2    0  502  0.28853966762E+02 -0.22591973183E+03  0.63255555329E+03  0.69421020205E+03  0.17300000000E+03 0. -1.
<mgrwt>
<rscale>  2 0.28600922E+03</rscale>
<asrwt>0</asrwt>
<pdfrwt beam="1">  1       21 0.11273353E+00 0.28600922E+03</pdfrwt>
<pdfrwt beam="2">  1       21 0.50086775E-01 0.28600922E+03</pdfrwt>
<totfact> 0.21774977E+03</totfact>
</mgrwt>
</event>
<event>
 4    1  0.4263413E+000  0.2192010E+03  0.7546771E-02  0.1134480E+00
         21   -1    0    0  503  502  0.00000000000E+00  0.00000000000E+00  0.96666892547E+02  0.96666892547E+02  0.00000000000E+00 0.  1.
         21   -1    0    0  501  503 -0.00000000000E+00 -0.00000000000E+00 -0.62891988391E+03  0.62891988391E+03  0.00000000000E+00 0.  1.
          6    1    1    2  501    0 -0.13138725193E+03  0.29282718089E+02 -0.43224604264E+03  0.48465010980E+03  0.17300000000E+03 0.  1.
         -6    1    1    2    0  502  0.13138725193E+03 -0.29282718089E+02 -0.10000694872E+03  0.24093666666E+03  0.17300000000E+03 0.  1.
<mgrwt>
<rscale>  2 0.21920102E+03</rscale>
<asrwt>0</asrwt>
<pdfrwt beam="1">  1       21 0.14871829E-01 0.21920102E+03</pdfrwt>
<pdfrwt beam="2">  1       21 0.96756908E-01 0.21920102E+03</pdfrwt>
<totfact> 0.34856985E+04</totfact>
</mgrwt>
</event>
<event>
 4    1  0.4263413E+000  0.2029957E+03  0.7546771E-02  0.1147236E+00
         21   -1    0    0  501  502  0.00000000000E+00  0.00000000000E+00  0.13567448171E+03  0.13567448171E+03  0.00000000000E+00 0.  1.
         21   -1    0    0  502  503 -0.00000000000E+00 -0.00000000000E+00 -0.54334519891E+03  0.54334519891E+03  0.00000000000E+00 0. -1.
          6    1    1    2  501    0  0.93669993311E+02  0.50041782748E+02  0.21629777629E+02  0.20414478918E+03  0.17300000000E+03 0.  1.
         -6    1    1    2    0  503 -0.93669993311E+02 -0.50041782748E+02 -0.42930049483E+03  0.47487489145E+03  0.17300000000E+03 0. -1.
<mgrwt>
<rscale>  2 0.20299568E+03</rscale>
<asrwt>0</asrwt>
<pdfrwt beam="1">  1       21 0.20872997E-01 0.20299568E+03</pdfrwt>
<pdfrwt beam="2">  1       21 0.83591570E-01 0.20299568E+03</pdfrwt>
<totfact> 0.26368869E+04</totfact>
</mgrwt>
</event>
<event>
 4    1  0.4263413E+000  0.1974122E+03  0.7546771E-02  0.1151941E+00
         21   -1    0    0  503  502  0.00000000000E+00  0.00000000000E+00  0.50234717712E+02  0.50234717712E+02  0.00000000000E+00 0.  1.
         21   -1    0    0  501  503 -0.00000000000E+00 -0.00000000000E+00 -0.12319903536E+04  0.12319903536E+04  0.00000000000E+00 0.  1.
          6    1    1    2  501    0  0.30792248884E+02 -0.89968927086E+02 -0.98100716860E+03  0.10006730911E+04  0.17300000000E+03 0.  1.
         -6    1    1    2    0  502 -0.30792248884E+02  0.89968927086E+02 -0.20074846727E+03  0.28155198018E+03  0.17300000000E+03 0.  1.
<mgrwt>
<rscale>  2 0.19741218E+03</rscale>
<asrwt>0</asrwt>
<pdfrwt beam="1">  1       21 0.77284186E-02 0.19741218E+03</pdfrwt>
<pdfrwt beam="2">  1       21 0.18953697E+00 0.19741218E+03</pdfrwt>
<totfact> 0.19944972E+04</totfact>
</mgrwt>
</event>
<event>
 4    1  0.4263413E+000  0.1960472E+03  0.7546771E-02  0.1153117E+00
         21   -1    0    0  501  502  0.00000000000E+00  0.00000000000E+00  0.39207343018E+03  0.39207343018E+03  0.00000000000E+00 0. -1.
         21   -1    0    0  502  503 -0.00000000000E+00 -0.00000000000E+00 -0.13120749836E+03  0.13120749836E+03  0.00000000000E+00 0. -1.
          6    1    1    2  501    0 -0.91468055132E+02  0.11794687992E+02  0.26200231407E+03  0.32723039644E+03  0.17300000000E+03 0. -1.
         -6    1    1    2    0  503  0.91468055132E+02 -0.11794687992E+02 -0.11363822472E+01  0.19605053211E+03  0.17300000000E+03 0. -1.
<mgrwt>
<rscale>  2 0.19604724E+03</rscale>
<asrwt>0</asrwt>
<pdfrwt beam="1">  1       21 0.60318989E-01 0.19604724E+03</pdfrwt>
<pdfrwt beam="2">  1       21 0.20185769E-01 0.19604724E+03</pdfrwt>
<totfact> 0.58030956E+04</totfact>
</mgrwt>
</event>
<event>
 4    1  0.4263413E+000  0.1921810E+03  0.7546771E-02  0.1156509E+00
         21   -1    0    0  503  502  0.00000000000E+00  0.00000000000E+00  0.31081471132E+02  0.31081471132E+02  0.00000000000E+00 0.  1.
         21   -1    0    0  501  503 -0.00000000000E+00 -0.00000000000E+00 -0.27859602587E+04  0.27859602587E+04  0.00000000000E+00 0.  1.
          6    1    1    2  501    0  0.72123948882E+02  0.42457847885E+02 -0.24440860485E+04  0.24516300996E+04  0.17300000000E+03 0.  1.
         -6    1    1    2    0  502 -0.72123948882E+02 -0.42457847885E+02 -0.31079273912E+03  0.36541163028E+03  0.17300000000E+03 0.  1.
<mgrwt>
<rscale>  2 0.19218099E+03</rscale>
<asrwt>0</asrwt>
<pdfrwt beam="1">  1       21 0.47817636E-02 0.19218099E+03</pdfrwt>
<pdfrwt beam="2">  1       21 0.42860938E+00 0.19218099E+03</pdfrwt>
<totfact> 0.16665407E+03</totfact>
</mgrwt>
</event>
<event>
 4    1  0.4263413E+000  0.1999179E+03  0.7546771E-02  0.1149808E+00
         21   -1    0    0  501  502  0.00000000000E+00  0.00000000000E+00  0.88655184284E+03  0.88655184284E+03  0.00000000000E+00 0. -1.
         21   -1    0    0  502  503 -0.00000000000E+00 -0.00000000000E+00 -0.45129713902E+02  0.45129713902E+02  0.00000000000E+00 0. -1.
          6    1    1    2  501    0 -0.44370485686E+02  0.89830095164E+02  0.40550249535E+03  0.45210558471E+03  0.17300000000E+03 0. -1.
         -6    1    1    2    0  503  0.44370485686E+02 -0.89830095164E+02  0.43591963360E+03  0.47957597203E+03  0.17300000000E+03 0. -1.
<mgrwt>
<rscale>  2 0.19991795E+03</rscale>
<asrwt>0</asrwt>
<pdfrwt beam="1">  1       21 0.13639258E+00 0.19991795E+03</pdfrwt>
<pdfrwt beam="2">  1       21 0.69430335E-02 0.19991795E+03</pdfrwt>
<totfact> 0.58485069E+04</totfact>
</mgrwt>
</event>
<event>
 4    1  0.4263413E+000  0.2103532E+03  0.7546771E-02  0.1141287E+00
         21   -1    0    0  501  502  0.00000000000E+00  0.00000000000E+00  0.12478990234E+03  0.12478990234E+03  0.00000000000E+00 0.  1.
         21   -1    0    0  502  503 -0.00000000000E+00 -0.00000000000E+00 -0.38899660624E+03  0.38899660624E+03  0.00000000000E+00 0.  1.
          6    1    1    2  501    0 -0.86149825214E+02  0.83052348675E+02 -0.55695239175E+02  0.21760157323E+03  0.17300000000E+03 0.  1.
         -6    1    1    2    0  503  0.86149825214E+02 -0.83052348675E+02 -0.20851146473E+03  0.29618493535E+03  0.17300000000E+03 0.  1.
<mgrwt>
<rscale>  2 0.21035324E+03</rscale>
<asrwt>0</asrwt>
<pdfrwt beam="1">  1       21 0.19198446E-01 0.21035324E+03</pdfrwt>
<pdfrwt beam="2">  1       21 0.59845632E-01 0.21035324E+03</pdfrwt>
<totfact> 0.64388324E+04</totfact>
</mgrwt>
</event>
<event>
 4    1  0.4263413E+000  0.1772112E+03  0.7546771E-02  0.1170530E+00
         21   -1    0    0  501  502  0.00000000000E+00  0.00000000000E+00  0.38119069936E+03  0.38119069936E+03  0.00000000000E+00 0.  1.
         21   -1    0    0  502  503 -0.00000000000E+00 -0.00000000000E+00 -0.83730729115E+02  0.83730729115E+02  0.00000000000E+00 0.  1.
          6    1    1    2  501    0 -0.24566091323E+02  0.29518077031E+02  0.17821720944E+03  0.25132684587E+03  0.17300000000E+03 0.  1.
         -6    1    1    2    0  503  0.24566091323E+02 -0.29518077031E+02  0.11924276081E+03  0.21359458261E+03  0.17300000000E+03 0.  1.
<mgrwt>
<rscale>  2 0.17721120E+03</rscale>
<asrwt>0</asrwt>
<pdfrwt beam="1">  1       21 0.58644722E-01 0.17721120E+03</pdfrwt>
<pdfrwt beam="2">  1       21 0.12881651E-01 0.17721120E+03</pdfrwt>
<totfact> 0.14135608E+05</totfact>
</mgrwt>
</event>
<event>
 4    1  0.4263413E+000  0.2398907E+03  0.7546771E-02  0.1119866E+00
         21   -1    0    0  501  502  0.00000000000E+00  0.00000000000E+00  0.34730072674E+03  0.34730072674E+03  0.00000000000E+00 0.  1.
         21   -1    0    0  502  503 -0.00000000000E+00 -0.00000000000E+00 -0.17087477050E+03  0.17087477050E+03  0.00000000000E+00 0.  1.
          6    1    1    2  501    0  0.16507899267E+03 -0.19169618570E+02  0.13330248438E+03  0.27443961165E+03  0.17300000000E+03 0.  1.
         -6    1    1    2    0  503 -0.16507899267E+03  0.19169618570E+02  0.43123471861E+02  0.24373588559E+03  0.17300000000E+03 0.  1.
<mgrwt>
<rscale>  2 0.23989070E+03</rscale>
<asrwt>0</asrwt>
<pdfrwt beam="1">  1       21 0.53430881E-01 0.23989070E+03</pdfrwt>
<pdfrwt beam="2">  1       21 0.26288426E-01 0.23989070E+03</pdfrwt>
<totfact> 0.44618821E+04</totfact>
</mgrwt>
</event>
<event>
 4    1  0.4263413E+000  0.2783400E+03  0.7546771E-02  0.1096599E+00
         21   -1    0    0  503  502  0.00000000000E+00  0.00000000000E+00  0.14425662362E+04  0.14425662362E+04  0.00000000000E+00 0. -1.
         21   -1    0    0  501  503 -0.00000000000E+00 -0.00000000000E+00 -0.63308343276E+02  0.63308343276E+02  0.00000000000E+00 0. -1.
          6    1    1    2  501    0 -0.10067431653E+03  0.19341362583E+03  0.39637927283E+03  0.48434458456E+03  0.17300000000E+03 0. -1.
         -6    1    1    2    0  502  0.10067431653E+03 -0.19341362583E+03  0.98287862009E+03  0.10215299949E+04  0.17300000000E+03 0. -1.
<mgrwt>
<rscale>  2 0.27833999E+03</rscale>
<asrwt>0</asrwt>
<pdfrwt beam="1">  1       21 0.22193324E+00 0.27833999E+03</pdfrwt>
<pdfrwt beam="2">  1       21 0.97397463E-02 0.27833999E+03</pdfrwt>
<totfact> 0.77871702E+03</totfact>
</mgrwt>
</event>
<event>
 4    1  0.4263413E+000  0.1975079E+03  0.7546771E-02  0.1151859E+00
         21   -1    0    0  503  502  0.00000000000E+00  0.00000000000E+00  0.12955772204E+03  0.12955772204E+03  0.00000000000E+00 0.  1.
         21   -1    0    0  501  503 -0.00000000000E+00 -0.00000000000E+00 -0.41036980318E+03  0.41036980318E+03  0.00000000000E+00 0.  1.
          6    1    1    2  501    0  0.82176363627E+02 -0.48243287039E+02 -0.27971367582E+03  0.34241657367E+03  0.17300000000E+03 0.  1.
         -6    1    1    2    0  502 -0.82176363627E+02  0.48243287039E+02 -0.10984053167E+01  0.19751095154E+03  0.17300000000E+03 0.  1.
<mgrwt>
<rscale>  2 0.19750790E+03</rscale>
<asrwt>0</asrwt>
<pdfrwt beam="1">  1       21 0.19931957E-01 0.19750790E+03</pdfrwt>
<pdfrwt beam="2">  1       21 0.63133816E-01 0.19750790E+03</pdfrwt>
<totfact> 0.53810345E+04</totfact>
</mgrwt>
</event>
<event>
 4    1  0.4263413E+000  0.1733981E+03  0.7546771E-02  0.1174350E+00
         21   -1    0    0  501  502  0.00000000000E+00  0.00000000000E+00  0.81012744445E+02  0.81012744445E+02  0.00000000000E+00 0.  1.
         21   -1    0    0  502  503 -0.00000000000E+00 -0.00000000000E+00 -0.52076064365E+03  0.52076064365E+03  0.00000000000E+00 0.  1.
          6    1    1    2  501    0  0.80678375321E+01  0.85332523204E+01 -0.58593177166E+02  0.18303023468E+03  0.17300000000E+03 0.  1.
         -6    1    1    2    0  503 -0.80678375321E+01 -0.85332523204E+01 -0.38115472204E+03  0.41874315341E+03  0.17300000000E+03 0.  1.
<mgrwt>
<rscale>  2 0.17339812E+03</rscale>
<asrwt>0</asrwt>
<pdfrwt beam="1">  1       21 0.12463499E-01 0.17339812E+03</pdfrwt>
<pdfrwt beam="2">  1       21 0.80117021E-01 0.17339812E+03</pdfrwt>
<totfact> 0.75795482E+04</totfact>
</mgrwt>
</event>
<event>
 4    1  0.4263413E+000  0.2284309E+03  0.7546771E-02  0.1127749E+00
         21   -1    0    0  503  502  0.00000000000E+00  0.00000000000E+00  0.13027127530E+03  0.13027127530E+03  0.00000000000E+00 0.  1.
         21   -1    0    0  501  503 -0.00000000000E+00 -0.00000000000E+00 -0.68519022220E+03  0.68519022220E+03  0.00000000000E+00 0. -1.
          6    1    1    2  501    0 -0.23980729186E+02 -0.14722974277E+03 -0.54025200328E+03  0.58656022673E+03  0.17300000000E+03 0. -1.
         -6    1    1    2    0  502  0.23980729186E+02  0.14722974277E+03 -0.14666943618E+02  0.22890127078E+03  0.17300000000E+03 0.  1.
<mgrwt>
<rscale>  2 0.22843089E+03</rscale>
<asrwt>0</asrwt>
<pdfrwt beam="1">  1       21 0.20041734E-01 0.22843089E+03</pdfrwt>
<pdfrwt beam="2">  1       21 0.10541388E+00 0.22843089E+03</pdfrwt>
<totfact> 0.16276622E+04</totfact>
</mgrwt>
</event>
<event>
 4    1  0.4263413E+000  0.2135575E+03  0.7546771E-02  0.1138779E+00
         21   -1    0    0  501  502  0.00000000000E+00  0.00000000000E+00  0.24074068955E+03  0.24074068955E+03  0.00000000000E+00 0. -1.
         21   -1    0    0  502  503 -0.00000000000E+00 -0.00000000000E+00 -0.19624012749E+03  0.19624012749E+03  0.00000000000E+00 0.  1.
          6    1    1    2  501    0 -0.11617364409E+03 -0.46706423815E+02  0.62911368791E+02  0.22263118814E+03  0.17300000000E+03 0.  1.
         -6    1    1    2    0  503  0.11617364409E+03  0.46706423815E+02 -0.18410806735E+02  0.21434962891E+03  0.17300000000E+03 0. -1.
<mgrwt>
<rscale>  2 0.21355750E+03</rscale>
<asrwt>0</asrwt>
<pdfrwt beam="1">  1       21 0.37037029E-01 0.21355750E+03</pdfrwt>
<pdfrwt beam="2">  1       21 0.30190789E-01 0.21355750E+03</pdfrwt>
<totfact> 0.73333681E+04</totfact>
</mgrwt>
</event>
<event>
 4    1  0.4263413E+000  0.2427640E+03  0.7546771E-02  0.1117965E+00
         21   -1    0    0  503  502  0.00000000000E+00  0.00000000000E+00  0.15388906992E+03  0.15388906992E+03  0.00000000000E+00 0. -1.
         21   -1    0    0  501  503 -0.00000000000E+00 -0.00000000000E+00 -0.43531229577E+03  0.43531229577E+03  0.00000000000E+00 0.  1.
          6    1    1    2  501    0  0.42806864279E+02 -0.16484209003E+03 -0.24287013995E+03  0.34339517637E+03  0.17300000000E+03 0.  1.
         -6    1    1    2    0  502 -0.42806864279E+02  0.16484209003E+03 -0.38553085899E+02  0.24580618932E+03  0.17300000000E+03 0. -1.
<mgrwt>
<rscale>  2 0.24276396E+03</rscale>
<asrwt>0</asrwt>
<pdfrwt beam="1">  1       21 0.23675242E-01 0.24276396E+03</pdfrwt>
<pdfrwt beam="2">  1       21 0.66971121E-01 0.24276396E+03</pdfrwt>
<totfact> 0.33457396E+04</totfact>
</mgrwt>
</event>
<event>
 4    1  0.4263413E+000  0.2317113E+03  0.7546771E-02  0.1125441E+00
         21   -1    0    0  501  502  0.00000000000E+00  0.00000000000E+00  0.17640357165E+03  0.17640357165E+03  0.00000000000E+00 0.  1.
         21   -1    0    0  502  503 -0.00000000000E+00 -0.00000000000E+00 -0.34663164456E+03  0.34663164456E+03  0.00000000000E+00 0. -1.
          6    1    1    2  501    0 -0.27143568296E+02  0.15173777709E+03  0.62117224655E+01  0.23179454651E+03  0.17300000000E+03 0.  1.
         -6    1    1    2    0  503  0.27143568296E+02 -0.15173777709E+03 -0.17643979538E+03  0.29124066970E+03  0.17300000000E+03 0. -1.
<mgrwt>
<rscale>  2 0.23171130E+03</rscale>
<asrwt>0</asrwt>
<pdfrwt beam="1">  1       21 0.27139011E-01 0.23171130E+03</pdfrwt>
<pdfrwt beam="2">  1       21 0.53327945E-01 0.23171130E+03</pdfrwt>
<totfact> 0.42277480E+04</totfact>
</mgrwt>
</event>
<event>
 4    1  0.4263413E+000  0.4282479E+03  0.7546771E-02  0.1034415E+00
         21   -1    0    0  503  502  0.00000000000E+00  0.00000000000E+00  0.29591502289E+03  0.29591502289E+03  0.00000000000E+00 0.  1.
         21   -1    0    0  501  503 -0.00000000000E+00 -0.00000000000E+00 -0.14333081825E+04  0.14333081825E+04  0.00000000000E+00 0. -1.
          6    1    1    2  501    0 -0.35123369875E+03  0.17349967855E+03 -0.12200893730E+04  0.12930639302E+04  0.17300000000E+03 0. -1.
         -6    1    1    2    0  502  0.35123369875E+03 -0.17349967855E+03  0.82696213379E+02  0.43615927515E+03  0.17300000000E+03 0.  1.
<mgrwt>
<rscale>  2 0.42824788E+03</rscale>
<asrwt>0</asrwt>
<pdfrwt beam="1">  1       21 0.45525388E-01 0.42824788E+03</pdfrwt>
<pdfrwt beam="2">  1       21 0.22050895E+00 0.42824788E+03</pdfrwt>
<totfact> 0.38048723E+02</totfact>
</mgrwt>
</event>
<event>
 4    1  0.4263413E+000  0.1851657E+03  0.7546771E-02  0.1162895E+00
         21   -1    0    0  501  502  0.00000000000E+00  0.00000000000E+00  0.47494567547E+02  0.47494567547E+02  0.00000000000E+00 0.  1.
         21   -1    0    0  502  503 -0.00000000000E+00 -0.00000000000E+00 -0.10361015550E+04  0.10361015550E+04  0.00000000000E+00 0. -1.
          6    1    1    2  501    0 -0.60951654282E+02 -0.25342633695E+02 -0.19594384569E+03  0.26959292258E+03  0.17300000000E+03 0.  1.
         -6    1    1    2    0  503  0.60951654282E+02  0.25342633695E+02 -0.79266314175E+03  0.81400319995E+03  0.17300000000E+03 0. -1.
<mgrwt>
<rscale>  2 0.18516575E+03</rscale>
<asrwt>0</asrwt>
<pdfrwt beam="1">  1       21 0.73068565E-02 0.18516575E+03</pdfrwt>
<pdfrwt beam="2">  1       21 0.15940024E+00 0.18516575E+03</pdfrwt>
<totfact> 0.35874755E+04</totfact>
</mgrwt>
</event>
<event>
 4    1  0.4263413E+000  0.2115619E+03  0.7546771E-02  0.1140335E+00
         21   -1    0    0  503  502  0.00000000000E+00  0.00000000000E+00  0.24285290840E+03  0.24285290840E+03  0.00000000000E+00 0.  1.
         21   -1    0    0  501  503 -0.00000000000E+00 -0.00000000000E+00 -0.19730245746E+03  0.19730245746E+03  0.00000000000E+00 0. -1.
          6    1    1    2  501    0 -0.19832625625E+02 -0.12015039677E+03  0.79265943668E+02  0.22592374977E+03  0.17300000000E+03 0.  1.
         -6    1    1    2    0  502  0.19832625625E+02  0.12015039677E+03 -0.33715492730E+02  0.21423161609E+03  0.17300000000E+03 0. -1.
<mgrwt>
<rscale>  2 0.21156193E+03</rscale>
<asrwt>0</asrwt>
<pdfrwt beam="1">  1       21 0.37361986E-01 0.21156193E+03</pdfrwt>
<pdfrwt beam="2">  1       21 0.30354224E-01 0.21156193E+03</pdfrwt>
<totfact> 0.71363586E+04</totfact>
</mgrwt>
</event>
<event>
 4    1  0.4263413E+000  0.2126713E+03  0.7546771E-02  0.1139468E+00
         21   -1    0    0  501  502  0.00000000000E+00  0.00000000000E+00  0.79036748711E+03  0.79036748711E+03  0.00000000000E+00 0.  1.
         21   -1    0    0  502  503 -0.00000000000E+00 -0.00000000000E+00 -0.72223577108E+02  0.72223577108E+02  0.00000000000E+00 0. -1.
          6    1    1    2  501    0  0.95675384747E+02 -0.78398399098E+02  0.55561371276E+03  0.59492494152E+03  0.17300000000E+03 0.  1.
         -6    1    1    2    0  503 -0.95675384747E+02  0.78398399098E+02  0.16253019724E+03  0.26766612270E+03  0.17300000000E+03 0. -1.
<mgrwt>
<rscale>  2 0.21267132E+03</rscale>
<asrwt>0</asrwt>
<pdfrwt beam="1">  1       21 0.12159499E+00 0.21267132E+03</pdfrwt>
<pdfrwt beam="2">  1       21 0.11111320E-01 0.21267132E+03</pdfrwt>
<totfact> 0.34013432E+04</totfact>
</mgrwt>
</event>
<event>
 4    1  0.4263413E+000  0.2391213E+03  0.7546771E-02  0.1120380E+00
         21   -1    0    0  501  502  0.00000000000E+00  0.00000000000E+00  0.30803932530E+03  0.30803932530E+03  0.00000000000E+00 0. -1.
         21   -1    0    0  502  503 -0.00000000000E+00 -0.00000000000E+00 -0.24728868942E+03  0.24728868942E+03  0.00000000000E+00 0. -1.
          6    1    1    2  501    0 -0.40221151791E+02  0.16010074769E+03  0.16903221122E+03  0.29283250996E+03  0.17300000000E+03 0. -1.
         -6    1    1    2    0  503  0.40221151791E+02 -0.16010074769E+03 -0.10828157534E+03  0.26249550476E+03  0.17300000000E+03 0. -1.
<mgrwt>
<rscale>  2 0.23912129E+03</rscale>
<asrwt>0</asrwt>
<pdfrwt beam="1">  1       21 0.47390665E-01 0.23912129E+03</pdfrwt>
<pdfrwt beam="2">  1       21 0.38044414E-01 0.23912129E+03</pdfrwt>
<totfact> 0.27699275E+04</totfact>
</mgrwt>
</event>
<event>
 4    1  0.4263413E+000  0.2164934E+03  0.7546771E-02  0.1136525E+00
         21   -1    0    0  501  502  0.00000000000E+00  0.00000000000E+00  0.11949360478E+04  0.11949360478E+04  0.00000000000E+00 0. -1.
         21   -1    0    0  502  503 -0.00000000000E+00 -0.00000000000E+00 -0.50082652949E+02  0.50082652949E+02  0.00000000000E+00 0.  1.
          6    1    1    2  501    0 -0.11461785633E+03  0.61669683115E+02  0.86229655509E+03  0.88905835114E+03  0.17300000000E+03 0.  1.
         -6    1    1    2    0  503  0.11461785633E+03 -0.61669683115E+02  0.28255683980E+03  0.35596034965E+03  0.17300000000E+03 0.  1.
<mgrwt>
<rscale>  2 0.21649342E+03</rscale>
<asrwt>0</asrwt>
<pdfrwt beam="1">  1       21 0.18383629E+00 0.21649342E+03</pdfrwt>
<pdfrwt beam="2">  1       21 0.77050245E-02 0.21649342E+03</pdfrwt>
<totfact> 0.21594440E+04</totfact>
</mgrwt>
</event>
<event>
 4    1  0.4263413E+000  0.2062483E+03  0.7546771E-02  0.1144572E+00
         21   -1    0    0  503  502  0.00000000000E+00  0.00000000000E+00  0.12443518557E+03  0.12443518557E+03  0.00000000000E+00 0.  1.
         21   -1    0    0  501  503 -0.00000000000E+00 -0.00000000000E+00 -0.11681814619E+04  0.11681814619E+04  0.00000000000E+00 0. -1.
          6    1    1    2  501    0  0.59327817952E+02 -0.95339177522E+02 -0.10654504944E+04  0.10852295171E+04  0.17300000000E+03 0. -1.
         -6    1    1    2    0  502 -0.59327817952E+02  0.95339177522E+02  0.21704218099E+02  0.20738713035E+03  0.17300000000E+03 0.  1.
<mgrwt>
<rscale>  2 0.20624827E+03</rscale>
<asrwt>0</asrwt>
<pdfrwt beam="1">  1       21 0.19143875E-01 0.20624827E+03</pdfrwt>
<pdfrwt beam="2">  1       21 0.17972022E+00 0.20624827E+03</pdfrwt>
<totfact> 0.45221669E+03</totfact>
</mgrwt>
</event>
<event>
 4    1  0.4263413E+000  0.2244013E+03  0.7546771E-02  0.1130644E+00
         21   -1    0    0  503  502  0.00000000000E+00  0.00000000000E+00  0.32730494883E+03  0.32730494883E+03  0.00000000000E+00 0. -1.
         21   -1    0    0  501  503 -0.00000000000E+00 -0.00000000000E+00 -0.16380030081E+03  0.16380030081E+03  0.00000000000E+00 0.  1.
          6    1    1    2  501    0  0.12428417664E+03 -0.70571976627E+02  0.21232303574E+02  0.22540357398E+03  0.17300000000E+03 0. -1.
         -6    1    1    2    0  502 -0.12428417664E+03  0.70571976627E+02  0.14227234445E+03  0.26570167565E+03  0.17300000000E+03 0.  1.
<mgrwt>
<rscale>  2 0.22440134E+03</rscale>
<asrwt>0</asrwt>
<pdfrwt beam="1">  1       21 0.50354607E-01 0.22440134E+03</pdfrwt>
<pdfrwt beam="2">  1       21 0.25200046E-01 0.22440134E+03</pdfrwt>
<totfact> 0.55201698E+04</totfact>
</mgrwt>
</event>
<event>
 4    1  0.4263413E+000  0.2166621E+03  0.7546771E-02  0.1136396E+00
         21   -1    0    0  503  502  0.00000000000E+00  0.00000000000E+00  0.46718887645E+02  0.46718887645E+02  0.00000000000E+00 0.  1.
         21   -1    0    0  501  503 -0.00000000000E+00 -0.00000000000E+00 -0.15058982981E+04  0.15058982981E+04  0.00000000000E+00 0. -1.
          6    1    1    2  501    0 -0.13002754558E+03  0.10311144305E+02 -0.11774103600E+04  0.11971790335E+04  0.17300000000E+03 0. -1.
         -6    1    1    2    0  502  0.13002754558E+03 -0.10311144305E+02 -0.28176905043E+03  0.35543815227E+03  0.17300000000E+03 0.  1.
<mgrwt>
<rscale>  2 0.21666214E+03</rscale>
<asrwt>0</asrwt>
<pdfrwt beam="1">  1       21 0.71875210E-02 0.21666214E+03</pdfrwt>
<pdfrwt beam="2">  1       21 0.23167667E+00 0.21666214E+03</pdfrwt>
<totfact> 0.12095972E+04</totfact>
</mgrwt>
</event>
<event>
 4    1  0.4263413E+000  0.2512566E+03  0.7546771E-02  0.1112513E+00
         21   -1    0    0  503  502  0.00000000000E+00  0.00000000000E+00  0.81595649364E+02  0.81595649364E+02  0.00000000000E+00 0. -1.
         21   -1    0    0  501  503 -0.00000000000E+00 -0.00000000000E+00 -0.83142627453E+03  0.83142627453E+03  0.00000000000E+00 0. -1.
          6    1    1    2  501    0 -0.65975955016E+02  0.16984720945E+03 -0.49521269908E+03  0.55530668871E+03  0.17300000000E+03 0. -1.
         -6    1    1    2    0  502  0.65975955016E+02 -0.16984720945E+03 -0.25461792609E+03  0.35771523518E+03  0.17300000000E+03 0. -1.
<mgrwt>
<rscale>  2 0.25125664E+03</rscale>
<asrwt>0</asrwt>
<pdfrwt beam="1">  1       21 0.12553176E-01 0.25125664E+03</pdfrwt>
<pdfrwt beam="2">  1       21 0.12791174E+00 0.25125664E+03</pdfrwt>
<totfact> 0.23573895E+04</totfact>
</mgrwt>
</event>
<event>
 4    1  0.4263413E+000  0.2055467E+03  0.7546771E-02  0.1145142E+00
         21   -1    0    0  501  502  0.00000000000E+00  0.00000000000E+00  0.34025692432E+02  0.34025692432E+02  0.00000000000E+00 0.  1.
         21   -1    0    0  502  503 -0.00000000000E+00 -0.00000000000E+00 -0.12786722336E+04  0.12786722336E+04  0.00000000000E+00 0. -1.
          6    1    1    2  501    0  0.80577963736E+02  0.76338880420E+02 -0.51070391136E+03  0.55051604698E+03  0.17300000000E+03 0.  1.
         -6    1    1    2    0  503 -0.80577963736E+02 -0.76338880420E+02 -0.73394262977E+03  0.76218187901E+03  0.17300000000E+03 0. -1.
<mgrwt>
<rscale>  2 0.20554667E+03</rscale>
<asrwt>0</asrwt>
<pdfrwt beam="1">  1       21 0.52347219E-02 0.20554667E+03</pdfrwt>
<pdfrwt beam="2">  1       21 0.19671881E+00 0.20554667E+03</pdfrwt>
<totfact> 0.34770754E+04</totfact>
</mgrwt>
</event>
<event>
 4    1  0.4263413E+000  0.1761126E+03  0.7546771E-02  0.1171619E+00
         21   -1    0    0  501  502  0.00000000000E+00  0.00000000000E+00  0.34298334215E+02  0.34298334215E+02  0.00000000000E+00 0.  1.
         21   -1    0    0  502  503 -0.00000000000E+00 -0.00000000000E+00 -0.90642282733E+03  0.90642282733E+03  0.00000000000E+00 0.  1.
          6    1    1    2  501    0 -0.32921556591E+02  0.16749506997E+01 -0.41324506250E+03  0.44920720834E+03  0.17300000000E+03 0.  1.
         -6    1    1    2    0  503  0.32921556591E+02 -0.16749506997E+01 -0.45887943062E+03  0.49151395320E+03  0.17300000000E+03 0.  1.
<mgrwt>
<rscale>  2 0.17611256E+03</rscale>
<asrwt>0</asrwt>
<pdfrwt beam="1">  1       21 0.52766680E-02 0.17611256E+03</pdfrwt>
<pdfrwt beam="2">  1       21 0.13944963E+00 0.17611256E+03</pdfrwt>
<totfact> 0.89443399E+04</totfact>
</mgrwt>
</event>
<event>
 4    1  0.4263413E+000  0.1747045E+03  0.7546771E-02  0.1173029E+00
         21   -1    0    0  501  502  0.00000000000E+00  0.00000000000E+00  0.47916378989E+03  0.47916378989E+03  0.00000000000E+00 0.  1.
         21   -1    0    0  502  503 -0.00000000000E+00 -0.00000000000E+00 -0.13386407011E+03  0.13386407011E+03  0.00000000000E+00 0.  1.
          6    1    1    2  501    0 -0.21812345062E+02 -0.10811300207E+02  0.39456273834E+03  0.43151062223E+03  0.17300000000E+03 0.  1.
         -6    1    1    2    0  503  0.21812345062E+02  0.10811300207E+02 -0.49263018558E+02  0.18151723777E+03  0.17300000000E+03 0.  1.
<mgrwt>
<rscale>  2 0.17470450E+03</rscale>
<asrwt>0</asrwt>
<pdfrwt beam="1">  1       21 0.73717505E-01 0.17470450E+03</pdfrwt>
<pdfrwt beam="2">  1       21 0.20594473E-01 0.17470450E+03</pdfrwt>
<totfact> 0.36449539E+04</totfact>
</mgrwt>
</event>
<event>
 4    1  0.4263413E+000  0.2411954E+03  0.7546771E-02  0.1118999E+00
         21   -1    0    0  501  502  0.00000000000E+00  0.00000000000E+00  0.77716463650E+02  0.77716463650E+02  0.00000000000E+00 0. -1.
         21   -1    0    0  502  503 -0.00000000000E+00 -0.00000000000E+00 -0.91301519161E+03  0.91301519161E+03  0.00000000000E+00 0. -1.
          6    1    1    2  501    0  0.15580692656E+03  0.63011176040E+02 -0.20740966174E+03  0.31811000370E+03  0.17300000000E+03 0. -1.
         -6    1    1    2    0  503 -0.15580692656E+03 -0.63011176040E+02 -0.62788906623E+03  0.67262165157E+03  0.17300000000E+03 0. -1.
<mgrwt>
<rscale>  2 0.24119537E+03</rscale>
<asrwt>0</asrwt>
<pdfrwt beam="1">  1       21 0.11956379E-01 0.24119537E+03</pdfrwt>
<pdfrwt beam="2">  1       21 0.14046388E+00 0.24119537E+03</pdfrwt>
<totfact> 0.20343872E+04</totfact>
</mgrwt>
</event>
<event>
 4    1  0.4263413E+000  0.2982321E+03  0.7546771E-02  0.1086128E+00
         21   -1    0    0  503  502  0.00000000000E+00  0.00000000000E+00  0.26627402510E+03  0.26627402510E+03  0.00000000000E+00 0.  1.
         21   -1    0    0  501  503 -0.00000000000E+00 -0.00000000000E+00 -0.33453142146E+03  0.33453142146E+03  0.00000000000E+00 0.  1.
          6    1    1    2  501    0  0.11242384690E+03 -0.21534679460E+03 -0.45808839087E+02  0.30172970194E+03  0.17300000000E+03 0.  1.
         -6    1    1    2    0  502 -0.11242384690E+03  0.21534679460E+03 -0.22448557282E+02  0.29907574462E+03  0.17300000000E+03 0.  1.
<mgrwt>
<rscale>  2 0.29823206E+03</rscale>
<asrwt>0</asrwt>
<pdfrwt beam="1">  1       21 0.40965235E-01 0.29823206E+03</pdfrwt>
<pdfrwt beam="2">  1       21 0.51466373E-01 0.29823206E+03</pdfrwt>
<totfact> 0.19537108E+04</totfact>
</mgrwt>
</event>
<event>
 4    1  0.4263413E+000  0.2931266E+03  0.7546771E-02  0.1088728E+00
         21   -1    0    0  503  502  0.00000000000E+00  0.00000000000E+00  0.88013143598E+03  0.88013143598E+03  0.00000000000E+00 0. -1.
         21   -1    0    0  501  503 -0.00000000000E+00 -0.00000000000E+00 -0.99675513199E+02  0.99675513199E+02  0.00000000000E+00 0.  1.
          6    1    1    2  501    0 -0.23189685762E+03  0.47095978917E+02  0.31996844392E+03  0.43393892301E+03  0.17300000000E+03 0. -1.
         -6    1    1    2    0  502  0.23189685762E+03 -0.47095978917E+02  0.46048747886E+03  0.54586802617E+03  0.17300000000E+03 0.  1.
<mgrwt>
<rscale>  2 0.29312657E+03</rscale>
<asrwt>0</asrwt>
<pdfrwt beam="1">  1       21 0.13540483E+00 0.29312657E+03</pdfrwt>
<pdfrwt beam="2">  1       21 0.15334695E-01 0.29312657E+03</pdfrwt>
<totfact> 0.13859723E+04</totfact>
</mgrwt>
</event>
<event>
 4    1  0.4263413E+000  0.1990555E+03  0.7546771E-02  0.1150538E+00
         21   -1    0    0  501  502  0.00000000000E+00  0.00000000000E+00  0.35411101395E+03  0.35411101395E+03  0.00000000000E+00 0. -1.
         21   -1    0    0  502  503 -0.00000000000E+00 -0.00000000000E+00 -0.11322855268E+03  0.11322855268E+03  0.00000000000E+00 0.  1.
          6    1    1    2  501    0  0.87998220942E+02  0.44163299241E+02  0.95077863208E+02  0.22059665446E+03  0.17300000000E+03 0.  1.
         -6    1    1    2    0  503 -0.87998220942E+02 -0.44163299241E+02  0.14580459806E+03  0.24674291217E+03  0.17300000000E+03 0. -1.
<mgrwt>
<rscale>  2 0.19905548E+03</rscale>
<asrwt>0</asrwt>
<pdfrwt beam="1">  1       21 0.54478617E-01 0.19905548E+03</pdfrwt>
<pdfrwt beam="2">  1       21 0.17419778E-01 0.19905548E+03</pdfrwt>
<totfact> 0.94676379E+04</totfact>
</mgrwt>
</event>
<event>
 4    1  0.4263413E+000  0.1895284E+03  0.7546771E-02  0.1158887E+00
         21   -1    0    0  501  502  0.00000000000E+00  0.00000000000E+00  0.22834164766E+03  0.22834164766E+03  0.00000000000E+00 0. -1.
         21   -1    0    0  502  503 -0.00000000000E+00 -0.00000000000E+00 -0.19339269684E+03  0.19339269684E+03  0.00000000000E+00 0. -1.
          6    1    1    2  501    0 -0.77171560607E+02 -0.60463506618E+01  0.10855448220E+03  0.21841493477E+03  0.17300000000E+03 0. -1.
         -6    1    1    2    0  503  0.77171560607E+02  0.60463506618E+01 -0.73605531382E+02  0.20331940973E+03  0.17300000000E+03 0. -1.
<mgrwt>
<rscale>  2 0.18952838E+03</rscale>
<asrwt>0</asrwt>
<pdfrwt beam="1">  1       21 0.35129484E-01 0.18952838E+03</pdfrwt>
<pdfrwt beam="2">  1       21 0.29752723E-01 0.18952838E+03</pdfrwt>
<totfact> 0.84705067E+04</totfact>
</mgrwt>
</event>
<event>
 4    1  0.4263413E+000  0.1851142E+03  0.7546771E-02  0.1162943E+00
         21   -1    0    0  501  502  0.00000000000E+00  0.00000000000E+00  0.11387330785E+04  0.11387330785E+04  0.00000000000E+00 0. -1.
         21   -1    0    0  502  503 -0.00000000000E+00 -0.00000000000E+00 -0.42632812436E+02  0.42632812436E+02  0.00000000000E+00 0. -1.
          6    1    1    2  501    0  0.67960657151E+01 -0.65513999576E+02  0.86840951531E+03  0.88792024243E+03  0.17300000000E+03 0. -1.
         -6    1    1    2    0  503 -0.67960657151E+01  0.65513999576E+02  0.22769075080E+03  0.29344564855E+03  0.17300000000E+03 0. -1.
<mgrwt>
<rscale>  2 0.18511421E+03</rscale>
<asrwt>0</asrwt>
<pdfrwt beam="1">  1       21 0.17518968E+00 0.18511421E+03</pdfrwt>
<pdfrwt beam="2">  1       21 0.65588951E-02 0.18511421E+03</pdfrwt>
<totfact> 0.33388166E+04</totfact>
</mgrwt>
</event>
<event>
 4    1  0.4263413E+000  0.2173163E+03  0.7546771E-02  0.1135900E+00
         21   -1    0    0  503  502  0.00000000000E+00  0.00000000000E+00  0.27633633311E+02  0.27633633311E+02  0.00000000000E+00 0.  1.
         21   -1    0    0  501  503 -0.00000000000E+00 -0.00000000000E+00 -0.20972008404E+04  0.20972008404E+04  0.00000000000E+00 0.  1.
          6    1    1    2  501    0  0.12418535860E+03  0.43305501732E+02 -0.14918648514E+04  0.15076097322E+04  0.17300000000E+03 0.  1.
         -6    1    1    2    0  502 -0.12418535860E+03 -0.43305501732E+02 -0.57770235572E+03  0.61722474154E+03  0.17300000000E+03 0.  1.
<mgrwt>
<rscale>  2 0.21731629E+03</rscale>
<asrwt>0</asrwt>
<pdfrwt beam="1">  1       21 0.42513272E-02 0.21731629E+03</pdfrwt>
<pdfrwt beam="2">  1       21 0.32264636E+00 0.21731629E+03</pdfrwt>
<totfact> 0.87005370E+03</totfact>
</mgrwt>
</event>
<event>
 4    1  0.4263413E+000  0.3160123E+03  0.7546771E-02  0.1077499E+00
         21   -1    0    0  503  502  0.00000000000E+00  0.00000000000E+00  0.66722679337E+03  0.66722679337E+03  0.00000000000E+00 0. -1.
         21   -1    0    0  501  503 -0.00000000000E+00 -0.00000000000E+00 -0.15175342425E+03  0.15175342425E+03  0.00000000000E+00 0.  1.
          6    1    1    2  501    0 -0.10483763029E+03 -0.24278347652E+03  0.20975484204E+03  0.37928991412E+03  0.17300000000E+03 0.  1.
         -6    1    1    2    0  502  0.10483763029E+03  0.24278347652E+03  0.30571852708E+03  0.43969030350E+03  0.17300000000E+03 0. -1.
<mgrwt>
<rscale>  2 0.31601225E+03</rscale>
<asrwt>0</asrwt>
<pdfrwt beam="1">  1       21 0.10265027E+00 0.31601225E+03</pdfrwt>
<pdfrwt beam="2">  1       21 0.23346681E-01 0.31601225E+03</pdfrwt>
<totfact> 0.12449191E+04</totfact>
</mgrwt>
</event>
<event>
 4    1  0.4263413E+000  0.2271379E+03  0.7546771E-02  0.1128671E+00
         21   -1    0    0  503  502  0.00000000000E+00  0.00000000000E+00  0.35723700871E+03  0.35723700871E+03  0.00000000000E+00 0.  1.
         21   -1    0    0  501  503 -0.00000000000E+00 -0.00000000000E+00 -0.15456518865E+03  0.15456518865E+03  0.00000000000E+00 0.  1.
          6    1    1    2  501    0  0.14703834871E+03  0.65082262891E+01  0.35769943146E+02  0.22993721281E+03  0.17300000000E+03 0.  1.
         -6    1    1    2    0  502 -0.14703834871E+03 -0.65082262891E+01  0.16690187691E+03  0.28186498455E+03  0.17300000000E+03 0.  1.
<mgrwt>
<rscale>  2 0.22713792E+03</rscale>
<asrwt>0</asrwt>
<pdfrwt beam="1">  1       21 0.54959539E-01 0.22713792E+03</pdfrwt>
<pdfrwt beam="2">  1       21 0.23779260E-01 0.22713792E+03</pdfrwt>
<totfact> 0.51222566E+04</totfact>
</mgrwt>
</event>
<event>
 4    1  0.4263413E+000  0.1765176E+03  0.7546771E-02  0.1171217E+00
         21   -1    0    0  501  502  0.00000000000E+00  0.00000000000E+00  0.12027200677E+03  0.12027200677E+03  0.00000000000E+00 0.  1.
         21   -1    0    0  502  503 -0.00000000000E+00 -0.00000000000E+00 -0.26533960413E+03  0.26533960413E+03  0.00000000000E+00 0.  1.
          6    1    1    2  501    0  0.35062470236E+02  0.28693511211E+00 -0.42888415940E+02  0.18165317331E+03  0.17300000000E+03 0.  1.
         -6    1    1    2    0  503 -0.35062470236E+02 -0.28693511211E+00 -0.10217918141E+03  0.20395843759E+03  0.17300000000E+03 0.  1.
<mgrwt>
<rscale>  2 0.17651759E+03</rscale>
<asrwt>0</asrwt>
<pdfrwt beam="1">  1       21 0.18503386E-01 0.17651759E+03</pdfrwt>
<pdfrwt beam="2">  1       21 0.40821477E-01 0.17651759E+03</pdfrwt>
<totfact> 0.15501902E+05</totfact>
</mgrwt>
</event>
<event>
 4    1  0.4263413E+000  0.1760461E+03  0.7546771E-02  0.1171685E+00
         21   -1    0    0  501  502  0.00000000000E+00  0.00000000000E+00  0.17838563090E+03  0.17838563090E+03  0.00000000000E+00 0.  1.
         21   -1    0    0  502  503 -0.00000000000E+00 -0.00000000000E+00 -0.28513882192E+03  0.28513882192E+03  0.00000000000E+00 0.  1.
          6    1    1    2  501    0  0.30439571432E+02  0.11690838178E+02  0.91487240932E+02  0.19839898805E+03  0.17300000000E+03 0.  1.
         -6    1    1    2    0  503 -0.30439571432E+02 -0.11690838178E+02 -0.19824043196E+03  0.26512546477E+03  0.17300000000E+03 0.  1.
<mgrwt>
<rscale>  2 0.17604614E+03</rscale>
<asrwt>0</asrwt>
<pdfrwt beam="1">  1       21 0.27443944E-01 0.17604614E+03</pdfrwt>
<pdfrwt beam="2">  1       21 0.43867510E-01 0.17604614E+03</pdfrwt>
<totfact> 0.63698332E+04</totfact>
</mgrwt>
</event>
<event>
 4    1  0.4263413E+000  0.1787415E+03  0.7546771E-02  0.1169027E+00
         21   -1    0    0  503  502  0.00000000000E+00  0.00000000000E+00  0.39052772232E+02  0.39052772232E+02  0.00000000000E+00 0. -1.
         21   -1    0    0  501  503 -0.00000000000E+00 -0.00000000000E+00 -0.91887720830E+03  0.91887720830E+03  0.00000000000E+00 0. -1.
          6    1    1    2  501    0 -0.35094237438E+02  0.28069678168E+02 -0.59854287483E+03  0.62466157665E+03  0.17300000000E+03 0. -1.
         -6    1    1    2    0  502  0.35094237438E+02 -0.28069678168E+02 -0.28128156124E+03  0.33326840389E+03  0.17300000000E+03 0. -1.
<mgrwt>
<rscale>  2 0.17874147E+03</rscale>
<asrwt>0</asrwt>
<pdfrwt beam="1">  1       21 0.60081196E-02 0.17874147E+03</pdfrwt>
<pdfrwt beam="2">  1       21 0.14136571E+00 0.17874147E+03</pdfrwt>
<totfact> 0.69135070E+04</totfact>
</mgrwt>
</event>
<event>
 4    1  0.4263413E+000  0.2290685E+03  0.7546771E-02  0.1127297E+00
         21   -1    0    0  501  502  0.00000000000E+00  0.00000000000E+00  0.51852994837E+02  0.51852994837E+02  0.00000000000E+00 0. -1.
         21   -1    0    0  502  503 -0.00000000000E+00 -0.00000000000E+00 -0.13010198611E+04  0.13010198611E+04  0.00000000000E+00 0. -1.
          6    1    1    2  501    0 -0.35887515106E+02 -0.14579258132E+03 -0.30573079226E+03  0.38202579474E+03  0.17300000000E+03 0. -1.
         -6    1    1    2    0  503  0.35887515106E+02  0.14579258132E+03 -0.94343607400E+03  0.97084706120E+03  0.17300000000E+03 0. -1.
<mgrwt>
<rscale>  2 0.22906853E+03</rscale>
<asrwt>0</asrwt>
<pdfrwt beam="1">  1       21 0.79773835E-02 0.22906853E+03</pdfrwt>
<pdfrwt beam="2">  1       21 0.20015691E+00 0.22906853E+03</pdfrwt>
<totfact> 0.15721209E+04</totfact>
</mgrwt>
</event>
<event>
 4    1  0.4263413E+000  0.1960534E+03  0.7546771E-02  0.1153112E+00
         21   -1    0    0  501  502  0.00000000000E+00  0.00000000000E+00  0.53072563913E+02  0.53072563913E+02  0.00000000000E+00 0. -1.
         21   -1    0    0  502  503 -0.00000000000E+00 -0.00000000000E+00 -0.14095562395E+04  0.14095562395E+04  0.00000000000E+00 0. -1.
          6    1    1    2  501    0 -0.68773841492E+02 -0.61466312090E+02 -0.16831206071E+03  0.25839098006E+03  0.17300000000E+03 0. -1.
         -6    1    1    2    0  503  0.68773841492E+02  0.61466312090E+02 -0.11881716149E+04  0.12042378234E+04  0.17300000000E+03 0. -1.
<mgrwt>
<rscale>  2 0.19605343E+03</rscale>
<asrwt>0</asrwt>
<pdfrwt beam="1">  1       21 0.81650112E-02 0.19605343E+03</pdfrwt>
<pdfrwt beam="2">  1       21 0.21685477E+00 0.19605343E+03</pdfrwt>
<totfact> 0.12146082E+04</totfact>
</mgrwt>
</event>
<event>
 4    1  0.4263413E+000  0.3110282E+03  0.7546771E-02  0.1079854E+00
         21   -1    0    0  503  502  0.00000000000E+00  0.00000000000E+00  0.22306166736E+03  0.22306166736E+03  0.00000000000E+00 0.  1.
         21   -1    0    0  501  503 -0.00000000000E+00 -0.00000000000E+00 -0.45191610122E+03  0.45191610122E+03  0.00000000000E+00 0.  1.
          6    1    1    2  501    0  0.65845475474E+02  0.24994786673E+03 -0.18221222082E+03  0.36047171337E+03  0.17300000000E+03 0.  1.
         -6    1    1    2    0  502 -0.65845475474E+02 -0.24994786673E+03 -0.46642213040E+02  0.31450605521E+03  0.17300000000E+03 0.  1.
<mgrwt>
<rscale>  2 0.31102823E+03</rscale>
<asrwt>0</asrwt>
<pdfrwt beam="1">  1       21 0.34317180E-01 0.31102823E+03</pdfrwt>
<pdfrwt beam="2">  1       21 0.69525554E-01 0.31102823E+03</pdfrwt>
<totfact> 0.14477787E+04</totfact>
</mgrwt>
</event>
<event>
 4    1  0.4263413E+000  0.1735549E+03  0.7546771E-02  0.1174191E+00
         21   -1    0    0  503  502  0.00000000000E+00  0.00000000000E+00  0.54633023298E+03  0.54633023298E+03  0.00000000000E+00 0. -1.
         21   -1    0    0  501  503 -0.00000000000E+00 -0.00000000000E+00 -0.14736948846E+03  0.14736948846E+03  0.00000000000E+00 0. -1.
          6    1    1    2  501    0  0.13865648394E+02 -0.19992035985E+00 -0.74921509423E+02  0.18903578695E+03  0.17300000000E+03 0. -1.
         -6    1    1    2    0  502 -0.13865648394E+02  0.19992035985E+00  0.47388225394E+03  0.50466393449E+03  0.17300000000E+03 0. -1.
<mgrwt>
<rscale>  2 0.17355488E+03</rscale>
<asrwt>0</asrwt>
<pdfrwt beam="1">  1       21 0.84050804E-01 0.17355488E+03</pdfrwt>
<pdfrwt beam="2">  1       21 0.22672229E-01 0.17355488E+03</pdfrwt>
<totfact> 0.22678838E+04</totfact>
</mgrwt>
</event>
<event>
 4    1  0.4263413E+000  0.1971002E+03  0.7546771E-02  0.1152209E+00
         21   -1    0    0  501  502  0.00000000000E+00  0.00000000000E+00  0.48669164996E+03  0.48669164996E+03  0.00000000000E+00 0.  1.
         21   -1    0    0  502  503 -0.00000000000E+00 -0.00000000000E+00 -0.97181485822E+02  0.97181485822E+02  0.00000000000E+00 0. -1.
          6    1    1    2  501    0 -0.30962721926E+02 -0.89223403797E+02  0.31814229936E+03  0.37424995468E+03  0.17300000000E+03 0.  1.
         -6    1    1    2    0  503  0.30962721926E+02  0.89223403797E+02  0.71367864782E+02  0.20962318111E+03  0.17300000000E+03 0. -1.
<mgrwt>
<rscale>  2 0.19710024E+03</rscale>
<asrwt>0</asrwt>
<pdfrwt beam="1">  1       21 0.74875637E-01 0.19710024E+03</pdfrwt>
<pdfrwt beam="2">  1       21 0.14950998E-01 0.19710024E+03</pdfrwt>
<totfact> 0.62845079E+04</totfact>
</mgrwt>
</event>
<event>
 4    1  0.4263413E+000  0.2431830E+03  0.7546771E-02  0.1117690E+00
         21   -1    0    0  503  502  0.00000000000E+00  0.00000000000E+00  0.93816312677E+03  0.93816312677E+03  0.00000000000E+00 0. -1.
         21   -1    0    0  501  503 -0.00000000000E+00 -0.00000000000E+00 -0.44709812286E+03  0.44709812286E+03  0.00000000000E+00 0. -1.
          6    1    1    2  501    0 -0.38744444239E+02 -0.16645670298E+03 -0.39641728203E+03  0.46506411108E+03  0.17300000000E+03 0. -1.
         -6    1    1    2    0  502  0.38744444239E+02  0.16645670298E+03  0.88748228594E+03  0.92019713854E+03  0.17300000000E+03 0. -1.
<mgrwt>
<rscale>  2 0.24318299E+03</rscale>
<asrwt>0</asrwt>
<pdfrwt beam="1">  1       21 0.14433279E+00 0.24318299E+03</pdfrwt>
<pdfrwt beam="2">  1       21 0.68784327E-01 0.24318299E+03</pdfrwt>
<totfact> 0.60527886E+02</totfact>
</mgrwt>
</event>
<event>
 4    1  0.4263413E+000  0.1987869E+03  0.7546771E-02  0.1150767E+00
         21   -1    0    0  503  502  0.00000000000E+00  0.00000000000E+00  0.55349799959E+03  0.55349799959E+03  0.00000000000E+00 0. -1.
         21   -1    0    0  501  503 -0.00000000000E+00 -0.00000000000E+00 -0.71560448587E+02  0.71560448587E+02  0.00000000000E+00 0. -1.
          6    1    1    2  501    0 -0.86329116949E+02  0.46200669630E+02  0.25605939561E+03  0.32416451438E+03  0.17300000000E+03 0. -1.
         -6    1    1    2    0  502  0.86329116949E+02 -0.46200669630E+02  0.22587815539E+03  0.30089393379E+03  0.17300000000E+03 0. -1.
<mgrwt>
<rscale>  2 0.19878687E+03</rscale>
<asrwt>0</asrwt>
<pdfrwt beam="1">  1       21 0.85153536E-01 0.19878687E+03</pdfrwt>
<pdfrwt beam="2">  1       21 0.11009300E-01 0.19878687E+03</pdfrwt>
<totfact> 0.81436582E+04</totfact>
</mgrwt>
</event>
<event>
 4    1  0.4263413E+000  0.2822438E+03  0.7546771E-02  0.1094470E+00
         21   -1    0    0  503  502  0.00000000000E+00  0.00000000000E+00  0.14036502063E+04  0.14036502063E+04  0.00000000000E+00 0.  1.
         21   -1    0    0  501  503 -0.00000000000E+00 -0.00000000000E+00 -0.58193930896E+02  0.58193930896E+02  0.00000000000E+00 0. -1.
          6    1    1    2  501    0  0.21116934818E+03 -0.71694258060E+02  0.55771900690E+03  0.62506963684E+03  0.17300000000E+03 0. -1.
         -6    1    1    2    0  502 -0.21116934818E+03  0.71694258060E+02  0.78773726850E+03  0.83677450035E+03  0.17300000000E+03 0.  1.
<mgrwt>
<rscale>  2 0.28224380E+03</rscale>
<asrwt>0</asrwt>
<pdfrwt beam="1">  1       21 0.21594616E+00 0.28224380E+03</pdfrwt>
<pdfrwt beam="2">  1       21 0.89529135E-02 0.28224380E+03</pdfrwt>
<totfact> 0.98339194E+03</totfact>
</mgrwt>
</event>
<event>
 4    1  0.4263413E+000  0.1753841E+03  0.7546771E-02  0.1172347E+00
         21   -1    0    0  503  502  0.00000000000E+00  0.00000000000E+00  0.85574273261E+03  0.85574273261E+03  0.00000000000E+00 0. -1.
         21   -1    0    0  501  503 -0.00000000000E+00 -0.00000000000E+00 -0.35986851580E+02  0.35986851580E+02  0.00000000000E+00 0. -1.
          6    1    1    2  501    0  0.96643869674E+01 -0.27151139413E+02  0.39465429247E+03  0.43186988239E+03  0.17300000000E+03 0.  1.
         -6    1    1    2    0  502 -0.96643869674E+01  0.27151139413E+02  0.42510158856E+03  0.45985970181E+03  0.17300000000E+03 0.  1.
<mgrwt>
<rscale>  2 0.17538411E+03</rscale>
<asrwt>0</asrwt>
<pdfrwt beam="1">  1       21 0.13165271E+00 0.17538411E+03</pdfrwt>
<pdfrwt beam="2">  1       21 0.55364394E-02 0.17538411E+03</pdfrwt>
<totfact> 0.95458099E+04</totfact>
</mgrwt>
</event>
<event>
 4    1  0.4263413E+000  0.2330675E+03  0.7546771E-02  0.1124499E+00
         21   -1    0    0  501  502  0.00000000000E+00  0.00000000000E+00  0.11359683515E+04  0.11359683515E+04  0.00000000000E+00 0. -1.
         21   -1    0    0  502  503 -0.00000000000E+00 -0.00000000000E+00 -0.89045877397E+02  0.89045877397E+02  0.00000000000E+00 0.  1.
          6    1    1    2  501    0  0.14982208149E+03 -0.44099837555E+02  0.94023118103E+03  0.96868732084E+03  0.17300000000E+03 0. -1.
         -6    1    1    2    0  503 -0.14982208149E+03  0.44099837555E+02  0.10669129307E+03  0.25632690805E+03  0.17300000000E+03 0.  1.
<mgrwt>
<rscale>  2 0.23306748E+03</rscale>
<asrwt>0</asrwt>
<pdfrwt beam="1">  1       21 0.17476435E+00 0.23306748E+03</pdfrwt>
<pdfrwt beam="2">  1       21 0.13699367E-01 0.23306748E+03</pdfrwt>
<totfact> 0.88645171E+03</totfact>
</mgrwt>
</event>
<event>
 4    1  0.4263413E+000  0.2095576E+03  0.7546771E-02  0.1141917E+00
         21   -1    0    0  501  502  0.00000000000E+00  0.00000000000E+00  0.10930521079E+03  0.10930521079E+03  0.00000000000E+00 0. -1.
         21   -1    0    0  502  503 -0.00000000000E+00 -0.00000000000E+00 -0.43335672245E+03  0.43335672245E+03  0.00000000000E+00 0. -1.
          6    1    1    2  501    0  0.11564969853E+03  0.24709375839E+02 -0.88759989299E+02  0.22758018746E+03  0.17300000000E+03 0. -1.
         -6    1    1    2    0  503 -0.11564969853E+03 -0.24709375839E+02 -0.23529152236E+03  0.31508174577E+03  0.17300000000E+03 0. -1.
<mgrwt>
<rscale>  2 0.20955764E+03</rscale>
<asrwt>0</asrwt>
<pdfrwt beam="1">  1       21 0.16816186E-01 0.20955764E+03</pdfrwt>
<pdfrwt beam="2">  1       21 0.66670264E-01 0.20955764E+03</pdfrwt>
<totfact> 0.65125686E+04</totfact>
</mgrwt>
</event>
<event>
 4    1  0.4263413E+000  0.1913443E+03  0.7546771E-02  0.1157254E+00
         21   -1    0    0  501  502  0.00000000000E+00  0.00000000000E+00  0.99921944259E+03  0.99921944259E+03  0.00000000000E+00 0.  1.
         21   -1    0    0  502  503 -0.00000000000E+00 -0.00000000000E+00 -0.13899830569E+03  0.13899830569E+03  0.00000000000E+00 0.  1.
          6    1    1    2  501    0 -0.26029763553E+02  0.77499023277E+02  0.91848115726E+03  0.93820055609E+03  0.17300000000E+03 0.  1.
         -6    1    1    2    0  503  0.26029763553E+02 -0.77499023277E+02 -0.58260020357E+02  0.20001719219E+03  0.17300000000E+03 0.  1.
<mgrwt>
<rscale>  2 0.19134432E+03</rscale>
<asrwt>0</asrwt>
<pdfrwt beam="1">  1       21 0.15372606E+00 0.19134432E+03</pdfrwt>
<pdfrwt beam="2">  1       21 0.21384355E-01 0.19134432E+03</pdfrwt>
<totfact> 0.57108502E+03</totfact>
</mgrwt>
</event>
<event>
 4    1  0.4263413E+000  0.1844265E+03  0.7546771E-02  0.1163587E+00
         21   -1    0    0  501  502  0.00000000000E+00  0.00000000000E+00  0.47046891205E+03  0.47046891205E+03  0.00000000000E+00 0. -1.
         21   -1    0    0  502  503 -0.00000000000E+00 -0.00000000000E+00 -0.72386890326E+02  0.72386890326E+02  0.00000000000E+00 0. -1.
          6    1    1    2  501    0  0.42040090231E+02  0.48132631706E+02  0.20864784432E+03  0.27847269590E+03  0.17300000000E+03 0.  1.
         -6    1    1    2    0  503 -0.42040090231E+02 -0.48132631706E+02  0.18943417740E+03  0.26438310648E+03  0.17300000000E+03 0.  1.
<mgrwt>
<rscale>  2 0.18442646E+03</rscale>
<asrwt>0</asrwt>
<pdfrwt beam="1">  1       21 0.72379831E-01 0.18442646E+03</pdfrwt>
<pdfrwt beam="2">  1       21 0.11136445E-01 0.18442646E+03</pdfrwt>
<totfact> 0.11572851E+05</totfact>
</mgrwt>
</event>
<event>
 4    1  0.4263413E+000  0.1858629E+03  0.7546771E-02  0.1162247E+00
         21   -1    0    0  501  502  0.00000000000E+00  0.00000000000E+00  0.33296602346E+03  0.33296602346E+03  0.00000000000E+00 0. -1.
         21   -1    0    0  502  503 -0.00000000000E+00 -0.00000000000E+00 -0.11435027453E+03  0.11435027453E+03  0.00000000000E+00 0. -1.
          6    1    1    2  501    0  0.86048181621E+01  0.67394244697E+02  0.17740626492E+03  0.25693970099E+03  0.17300000000E+03 0. -1.
         -6    1    1    2    0  503 -0.86048181621E+01 -0.67394244697E+02  0.41209484008E+02  0.19037659700E+03  0.17300000000E+03 0. -1.
<mgrwt>
<rscale>  2 0.18586293E+03</rscale>
<asrwt>0</asrwt>
<pdfrwt beam="1">  1       21 0.51225542E-01 0.18586293E+03</pdfrwt>
<pdfrwt beam="2">  1       21 0.17592350E-01 0.18586293E+03</pdfrwt>
<totfact> 0.10636570E+05</totfact>
</mgrwt>
</event>
<event>
 4    1  0.4263413E+000  0.2692391E+03  0.7546771E-02  0.1101716E+00
         21   -1    0    0  503  502  0.00000000000E+00  0.00000000000E+00  0.51482448378E+03  0.51482448378E+03  0.00000000000E+00 0. -1.
         21   -1    0    0  501  503 -0.00000000000E+00 -0.00000000000E+00 -0.23065239310E+03  0.23065239310E+03  0.00000000000E+00 0. -1.
          6    1    1    2  501    0  0.13713044889E+03 -0.15412958844E+03  0.37472302133E+03  0.46141850068E+03  0.17300000000E+03 0. -1.
         -6    1    1    2    0  502 -0.13713044889E+03  0.15412958844E+03 -0.90550930655E+02  0.28405837620E+03  0.17300000000E+03 0. -1.
<mgrwt>
<rscale>  2 0.26923909E+03</rscale>
<asrwt>0</asrwt>
<pdfrwt beam="1">  1       21 0.79203767E-01 0.26923909E+03</pdfrwt>
<pdfrwt beam="2">  1       21 0.35484984E-01 0.26923909E+03</pdfrwt>
<totfact> 0.10288606E+04</totfact>
</mgrwt>
</event>
<event>
 4    1  0.4263413E+000  0.2494155E+03  0.7546771E-02  0.1113675E+00
         21   -1    0    0  501  502  0.00000000000E+00  0.00000000000E+00  0.25465461629E+03  0.25465461629E+03  0.00000000000E+00 0. -1.
         21   -1    0    0  502  503 -0.00000000000E+00 -0.00000000000E+00 -0.25642748229E+03  0.25642748229E+03  0.00000000000E+00 0. -1.
          6    1    1    2  501    0  0.13146109224E+03  0.12246253272E+03 -0.56495682474E+02  0.25573394931E+03  0.17300000000E+03 0. -1.
         -6    1    1    2    0  503 -0.13146109224E+03 -0.12246253272E+03  0.54722816473E+02  0.25534814927E+03  0.17300000000E+03 0. -1.
<mgrwt>
<rscale>  2 0.24941550E+03</rscale>
<asrwt>0</asrwt>
<pdfrwt beam="1">  1       21 0.39177633E-01 0.24941550E+03</pdfrwt>
<pdfrwt beam="2">  1       21 0.39450382E-01 0.24941550E+03</pdfrwt>
<totfact> 0.37873458E+04</totfact>
</mgrwt>
</event>
<event>
 4    1  0.4263413E+000  0.2351144E+03  0.7546771E-02  0.1123091E+00
         21   -1    0    0  503  502  0.00000000000E+00  0.00000000000E+00  0.13229942925E+03  0.13229942925E+03  0.00000000000E+00 0. -1.
         21   -1    0    0  501  503 -0.00000000000E+00 -0.00000000000E+00 -0.45988785265E+03  0.45988785265E+03  0.00000000000E+00 0. -1.
          6    1    1    2  501    0 -0.90061985151E+02 -0.13129596546E+03 -0.25333520941E+03  0.34562627221E+03  0.17300000000E+03 0. -1.
         -6    1    1    2    0  502  0.90061985151E+02  0.13129596546E+03 -0.74253213984E+02  0.24656100969E+03  0.17300000000E+03 0. -1.
<mgrwt>
<rscale>  2 0.23511442E+03</rscale>
<asrwt>0</asrwt>
<pdfrwt beam="1">  1       21 0.20353759E-01 0.23511442E+03</pdfrwt>
<pdfrwt beam="2">  1       21 0.70751976E-01 0.23511442E+03</pdfrwt>
<totfact> 0.39591557E+04</totfact>
</mgrwt>
</event>
<event>
 4    1  0.4263413E+000  0.2011297E+03  0.7546771E-02  0.1148789E+00
         21   -1    0    0  501  502  0.00000000000E+00  0.00000000000E+00  0.69526373899E+03  0.69526373899E+03  0.00000000000E+00 0. -1.
         21   -1    0    0  502  503 -0.00000000000E+00 -0.00000000000E+00 -0.61797846430E+02  0.61797846430E+02  0.00000000000E+00 0. -1.
          6    1    1    2  501    0 -0.10035548976E+03 -0.21282425878E+02  0.40827160091E+03  0.45512511036E+03  0.17300000000E+03 0. -1.
         -6    1    1    2    0  503  0.10035548976E+03  0.21282425878E+02  0.22519429166E+03  0.30193647506E+03  0.17300000000E+03 0. -1.
<mgrwt>
<rscale>  2 0.20112972E+03</rscale>
<asrwt>0</asrwt>
<pdfrwt beam="1">  1       21 0.10696365E+00 0.20112972E+03</pdfrwt>
<pdfrwt beam="2">  1       21 0.95073615E-02 0.20112972E+03</pdfrwt>
<totfact> 0.61725774E+04</totfact>
</mgrwt>
</event>
<event>
 4    1  0.4263413E+000  0.1761321E+03  0.7546771E-02  0.1171600E+00
         21   -1    0    0  501  502  0.00000000000E+00  0.00000000000E+00  0.16674091508E+03  0.16674091508E+03  0.00000000000E+00 0.  1.
         21   -1    0    0  502  503 -0.00000000000E+00 -0.00000000000E+00 -0.18783678847E+03  0.18783678847E+03  0.00000000000E+00 0.  1.
          6    1    1    2  501    0 -0.22513861861E+02 -0.24220737517E+02 -0.27828472623E+02  0.17831697056E+03  0.17300000000E+03 0. -1.
         -6    1    1    2    0  503  0.22513861861E+02  0.24220737517E+02  0.67325992360E+01  0.17626073299E+03  0.17300000000E+03 0. -1.
<mgrwt>
<rscale>  2 0.17613210E+03</rscale>
<asrwt>0</asrwt>
<pdfrwt beam="1">  1       21 0.25652449E-01 0.17613210E+03</pdfrwt>
<pdfrwt beam="2">  1       21 0.28897967E-01 0.17613210E+03</pdfrwt>
<totfact> 0.16609632E+05</totfact>
</mgrwt>
</event>
<event>
 4    1  0.4263413E+000  0.1971591E+03  0.7546771E-02  0.1152158E+00
         21   -1    0    0  503  502  0.00000000000E+00  0.00000000000E+00  0.16848440698E+04  0.16848440698E+04  0.00000000000E+00 0.  1.
         21   -1    0    0  501  503 -0.00000000000E+00 -0.00000000000E+00 -0.54636239507E+02  0.54636239507E+02  0.00000000000E+00 0.  1.
          6    1    1    2  501    0 -0.49948166507E+01  0.94433802220E+02  0.15402851471E+03  0.25019287468E+03  0.17300000000E+03 0.  1.
         -6    1    1    2    0  502  0.49948166507E+01 -0.94433802220E+02  0.14761793156E+04  0.14892874346E+04  0.17300000000E+03 0.  1.
<mgrwt>
<rscale>  2 0.19715905E+03</rscale>
<asrwt>0</asrwt>
<pdfrwt beam="1">  1       21 0.25920674E+00 0.19715905E+03</pdfrwt>
<pdfrwt beam="2">  1       21 0.84055766E-02 0.19715905E+03</pdfrwt>
<totfact> 0.64358492E+03</totfact>
</mgrwt>
</event>
<event>
 4    1  0.4263413E+000  0.2535028E+03  0.7546771E-02  0.1111111E+00
         21   -1    0    0  501  502  0.00000000000E+00  0.00000000000E+00  0.50670871520E+03  0.50670871520E+03  0.00000000000E+00 0.  1.
         21   -1    0    0  502  503 -0.00000000000E+00 -0.00000000000E+00 -0.13074036128E+03  0.13074036128E+03  0.00000000000E+00 0.  1.
          6    1    1    2  501    0 -0.17790972622E+03  0.51795889445E+02  0.24313576804E+03  0.35125302355E+03  0.17300000000E+03 0.  1.
         -6    1    1    2    0  503  0.17790972622E+03 -0.51795889445E+02  0.13283258587E+03  0.28619605294E+03  0.17300000000E+03 0.  1.
<mgrwt>
<rscale>  2 0.25350283E+03</rscale>
<asrwt>0</asrwt>
<pdfrwt beam="1">  1       21 0.77955186E-01 0.25350283E+03</pdfrwt>
<pdfrwt beam="2">  1       21 0.20113902E-01 0.25350283E+03</pdfrwt>
<totfact> 0.32309175E+04</totfact>
</mgrwt>
</event>
<event>
 4    1  0.4263413E+000  0.2123722E+03  0.7546771E-02  0.1139701E+00
         21   -1    0    0  503  502  0.00000000000E+00  0.00000000000E+00  0.22865575144E+03  0.22865575144E+03  0.00000000000E+00 0. -1.
         21   -1    0    0  501  503 -0.00000000000E+00 -0.00000000000E+00 -0.19918459307E+03  0.19918459307E+03  0.00000000000E+00 0. -1.
          6    1    1    2  501    0  0.11086781774E+03 -0.53677521909E+02  0.35827385396E+02  0.21537305057E+03  0.17300000000E+03 0. -1.
         -6    1    1    2    0  502 -0.11086781774E+03  0.53677521909E+02 -0.63562270286E+01  0.21246729393E+03  0.17300000000E+03 0. -1.
<mgrwt>
<rscale>  2 0.21237220E+03</rscale>
<asrwt>0</asrwt>
<pdfrwt beam="1">  1       21 0.35177808E-01 0.21237220E+03</pdfrwt>
<pdfrwt beam="2">  1       21 0.30643784E-01 0.21237220E+03</pdfrwt>
<totfact> 0.78983314E+04</totfact>
</mgrwt>
</event>
<event>
 4    1  0.4263413E+000  0.1978541E+03  0.7546771E-02  0.1151562E+00
         21   -1    0    0  503  502  0.00000000000E+00  0.00000000000E+00  0.18859159657E+03  0.18859159657E+03  0.00000000000E+00 0. -1.
         21   -1    0    0  501  503 -0.00000000000E+00 -0.00000000000E+00 -0.20770563209E+03  0.20770563209E+03  0.00000000000E+00 0.  1.
          6    1    1    2  501    0  0.55397499070E+02  0.78411374110E+02 -0.14593812037E+02  0.19839154680E+03  0.17300000000E+03 0.  1.
         -6    1    1    2    0  502 -0.55397499070E+02 -0.78411374110E+02 -0.45202234826E+01  0.19790568186E+03  0.17300000000E+03 0. -1.
<mgrwt>
<rscale>  2 0.19785405E+03</rscale>
<asrwt>0</asrwt>
<pdfrwt beam="1">  1       21 0.29014092E-01 0.19785405E+03</pdfrwt>
<pdfrwt beam="2">  1       21 0.31954713E-01 0.19785405E+03</pdfrwt>
<totfact> 0.10688791E+05</totfact>
</mgrwt>
</event>
<event>
 4    1  0.4263413E+000  0.2272117E+03  0.7546771E-02  0.1128618E+00
         21   -1    0    0  501  502  0.00000000000E+00  0.00000000000E+00  0.36220207292E+03  0.36220207292E+03  0.00000000000E+00 0.  1.
         21   -1    0    0  502  503 -0.00000000000E+00 -0.00000000000E+00 -0.14311454662E+03  0.14311454662E+03  0.00000000000E+00 0.  1.
          6    1    1    2  501    0  0.11552844441E+03  0.91374793396E+02  0.93415982251E+02  0.24566587080E+03  0.17300000000E+03 0.  1.
         -6    1    1    2    0  503 -0.11552844441E+03 -0.91374793396E+02  0.12567154405E+03  0.25965074874E+03  0.17300000000E+03 0.  1.
<mgrwt>
<rscale>  2 0.22721174E+03</rscale>
<asrwt>0</asrwt>
<pdfrwt beam="1">  1       21 0.55723396E-01 0.22721174E+03</pdfrwt>
<pdfrwt beam="2">  1       21 0.22017623E-01 0.22721174E+03</pdfrwt>
<totfact> 0.57570593E+04</totfact>
</mgrwt>
</event>
<event>
 4    1  0.4263413E+000  0.2208297E+03  0.7546771E-02  0.1133266E+00
         21   -1    0    0  503  502  0.00000000000E+00  0.00000000000E+00  0.15180789774E+04  0.15180789774E+04  0.00000000000E+00 0.  1.
         21   -1    0    0  501  503 -0.00000000000E+00 -0.00000000000E+00 -0.36158331955E+02  0.36158331955E+02  0.00000000000E+00 0.  1.
          6    1    1    2  501    0  0.12762418977E+03 -0.50485651578E+02  0.48135976425E+03  0.52959697646E+03  0.17300000000E+03 0.  1.
         -6    1    1    2    0  502 -0.12762418977E+03  0.50485651578E+02  0.10005608812E+04  0.10246403329E+04  0.17300000000E+03 0.  1.
<mgrwt>
<rscale>  2 0.22082965E+03</rscale>
<asrwt>0</asrwt>
<pdfrwt beam="1">  1       21 0.23355056E+00 0.22082965E+03</pdfrwt>
<pdfrwt beam="2">  1       21 0.55628215E-02 0.22082965E+03</pdfrwt>
<totfact> 0.18259515E+04</totfact>
</mgrwt>
</event>
<event>
 4    1  0.4263413E+000  0.2494668E+03  0.7546771E-02  0.1113642E+00
         21   -1    0    0  501  502  0.00000000000E+00  0.00000000000E+00  0.14823707586E+03  0.14823707586E+03  0.00000000000E+00 0. -1.
         21   -1    0    0  502  503 -0.00000000000E+00 -0.00000000000E+00 -0.53519913532E+03  0.53519913532E+03  0.00000000000E+00 0.  1.
          6    1    1    2  501    0  0.63480117190E+02 -0.16815159407E+03 -0.34822348939E+02  0.25188544986E+03  0.17300000000E+03 0. -1.
         -6    1    1    2    0  503 -0.63480117190E+02  0.16815159407E+03 -0.35213971052E+03  0.43155076132E+03  0.17300000000E+03 0.  1.
<mgrwt>
<rscale>  2 0.24946680E+03</rscale>
<asrwt>0</asrwt>
<pdfrwt beam="1">  1       21 0.22805704E-01 0.24946680E+03</pdfrwt>
<pdfrwt beam="2">  1       21 0.82338328E-01 0.24946680E+03</pdfrwt>
<totfact> 0.22533500E+04</totfact>
</mgrwt>
</event>
<event>
 4    1  0.4263413E+000  0.1753151E+03  0.7546771E-02  0.1172416E+00
         21   -1    0    0  501  502  0.00000000000E+00  0.00000000000E+00  0.64491152888E+03  0.64491152888E+03  0.00000000000E+00 0. -1.
         21   -1    0    0  502  503 -0.00000000000E+00 -0.00000000000E+00 -0.19214691626E+03  0.19214691626E+03  0.00000000000E+00 0. -1.
          6    1    1    2  501    0 -0.19389413295E+02 -0.20746539626E+02  0.58931487057E+03  0.61483931635E+03  0.17300000000E+03 0. -1.
         -6    1    1    2    0  503  0.19389413295E+02  0.20746539626E+02 -0.13655025795E+03  0.22221912879E+03  0.17300000000E+03 0. -1.
<mgrwt>
<rscale>  2 0.17531505E+03</rscale>
<asrwt>0</asrwt>
<pdfrwt beam="1">  1       21 0.99217157E-01 0.17531505E+03</pdfrwt>
<pdfrwt beam="2">  1       21 0.29561064E-01 0.17531505E+03</pdfrwt>
<totfact> 0.92888026E+03</totfact>
</mgrwt>
</event>
<event>
 4    1  0.4263413E+000  0.2623765E+03  0.7546771E-02  0.1105724E+00
         21   -1    0    0  501  502  0.00000000000E+00  0.00000000000E+00  0.48977697627E+03  0.48977697627E+03  0.00000000000E+00 0. -1.
         21   -1    0    0  502  503 -0.00000000000E+00 -0.00000000000E+00 -0.23640770595E+03  0.23640770595E+03  0.00000000000E+00 0.  1.
          6    1    1    2  501    0  0.77514876426E+02 -0.18139429214E+03  0.35788289782E+03  0.44375850847E+03  0.17300000000E+03 0. -1.
         -6    1    1    2    0  503 -0.77514876426E+02  0.18139429214E+03 -0.10451362749E+03  0.28242617375E+03  0.17300000000E+03 0.  1.
<mgrwt>
<rscale>  2 0.26237653E+03</rscale>
<asrwt>0</asrwt>
<pdfrwt beam="1">  1       21 0.75350304E-01 0.26237653E+03</pdfrwt>
<pdfrwt beam="2">  1       21 0.36370416E-01 0.26237653E+03</pdfrwt>
<totfact> 0.11001656E+04</totfact>
</mgrwt>
</event>
<event>
 4    1  0.4263413E+000  0.2278944E+03  0.7546771E-02  0.1128131E+00
         21   -1    0    0  503  502  0.00000000000E+00  0.00000000000E+00  0.12904637189E+03  0.12904637189E+03  0.00000000000E+00 0.  1.
         21   -1    0    0  501  503 -0.00000000000E+00 -0.00000000000E+00 -0.88043221270E+03  0.88043221270E+03  0.00000000000E+00 0. -1.
          6    1    1    2  501    0  0.12851385127E+03 -0.74101530309E+02 -0.74758850882E+03  0.78155257359E+03  0.17300000000E+03 0. -1.
         -6    1    1    2    0  502 -0.12851385127E+03  0.74101530309E+02 -0.37973319930E+01  0.22792601100E+03  0.17300000000E+03 0.  1.
<mgrwt>
<rscale>  2 0.22789438E+03</rscale>
<asrwt>0</asrwt>
<pdfrwt beam="1">  1       21 0.19853288E-01 0.22789438E+03</pdfrwt>
<pdfrwt beam="2">  1       21 0.13545111E+00 0.22789438E+03</pdfrwt>
<totfact> 0.88887702E+03</totfact>
</mgrwt>
</event>
<event>
 4    1  0.4263413E+000  0.3659612E+03  0.7546771E-02  0.1056248E+00
         21   -1    0    0  503  502  0.00000000000E+00  0.00000000000E+00  0.13988775493E+03  0.13988775493E+03  0.00000000000E+00 0.  1.
         21   -1    0    0  501  503 -0.00000000000E+00 -0.00000000000E+00 -0.11876703589E+04  0.11876703589E+04  0.00000000000E+00 0. -1.
          6    1    1    2  501    0  0.26954772037E+03  0.17703857724E+03 -0.81617238485E+03  0.89446352255E+03  0.17300000000E+03 0. -1.
         -6    1    1    2    0  502 -0.26954772037E+03 -0.17703857724E+03 -0.23161021910E+03  0.43309459126E+03  0.17300000000E+03 0.  1.
<mgrwt>
<rscale>  2 0.36596124E+03</rscale>
<asrwt>0</asrwt>
<pdfrwt beam="1">  1       21 0.21521194E-01 0.36596124E+03</pdfrwt>
<pdfrwt beam="2">  1       21 0.18271851E+00 0.36596124E+03</pdfrwt>
<totfact> 0.31179486E+03</totfact>
</mgrwt>
</event>
<event>
 4    1  0.4263413E+000  0.2309397E+03  0.7546771E-02  0.1125980E+00
         21   -1    0    0  503  502  0.00000000000E+00  0.00000000000E+00  0.59924954182E+03  0.59924954182E+03  0.00000000000E+00 0.  1.
         21   -1    0    0  501  503 -0.00000000000E+00 -0.00000000000E+00 -0.90221383549E+02  0.90221383549E+02  0.00000000000E+00 0.  1.
          6    1    1    2  501    0 -0.24931023074E+02 -0.15093908434E+03  0.21440239113E+03  0.31512148199E+03  0.17300000000E+03 0.  1.
         -6    1    1    2    0  502  0.24931023074E+02  0.15093908434E+03  0.29462576714E+03  0.37434944337E+03  0.17300000000E+03 0.  1.
<mgrwt>
<rscale>  2 0.23093974E+03</rscale>
<asrwt>0</asrwt>
<pdfrwt beam="1">  1       21 0.92192235E-01 0.23093974E+03</pdfrwt>
<pdfrwt beam="2">  1       21 0.13880213E-01 0.23093974E+03</pdfrwt>
<totfact> 0.44024707E+04</totfact>
</mgrwt>
</event>
<event>
 4    1  0.4263413E+000  0.2481197E+03  0.7546771E-02  0.1114499E+00
         21   -1    0    0  503  502  0.00000000000E+00  0.00000000000E+00  0.41472733511E+03  0.41472733511E+03  0.00000000000E+00 0. -1.
         21   -1    0    0  501  503 -0.00000000000E+00 -0.00000000000E+00 -0.18355612880E+03  0.18355612880E+03  0.00000000000E+00 0.  1.
          6    1    1    2  501    0  0.16546064646E+03 -0.65246846181E+02 -0.15250386676E+02  0.24858791354E+03  0.17300000000E+03 0.  1.
         -6    1    1    2    0  502 -0.16546064646E+03  0.65246846181E+02  0.24642159299E+03  0.34969555038E+03  0.17300000000E+03 0. -1.
<mgrwt>
<rscale>  2 0.24811968E+03</rscale>
<asrwt>0</asrwt>
<pdfrwt beam="1">  1       21 0.63804205E-01 0.24811968E+03</pdfrwt>
<pdfrwt beam="2">  1       21 0.28239405E-01 0.24811968E+03</pdfrwt>
<totfact> 0.26423765E+04</totfact>
</mgrwt>
</event>
<event>
 4    1  0.4263413E+000  0.2503474E+03  0.7546771E-02  0.1113085E+00
         21   -1    0    0  503  502  0.00000000000E+00  0.00000000000E+00  0.65257668243E+03  0.65257668243E+03  0.00000000000E+00 0. -1.
         21   -1    0    0  501  503 -0.00000000000E+00 -0.00000000000E+00 -0.96129256761E+02  0.96129256761E+02  0.00000000000E+00 0.  1.
          6    1    1    2  501    0 -0.62983409768E+02  0.16964054863E+03  0.26685205479E+03  0.36590141403E+03  0.17300000000E+03 0.  1.
         -6    1    1    2    0  502  0.62983409768E+02 -0.16964054863E+03  0.28959537088E+03  0.38280452516E+03  0.17300000000E+03 0. -1.
<mgrwt>
<rscale>  2 0.25034741E+03</rscale>
<asrwt>0</asrwt>
<pdfrwt beam="1">  1       21 0.10039641E+00 0.25034741E+03</pdfrwt>
<pdfrwt beam="2">  1       21 0.14789117E-01 0.25034741E+03</pdfrwt>
<totfact> 0.31778196E+04</totfact>
</mgrwt>
</event>
<event>
 4    1  0.4263413E+000  0.2005972E+03  0.7546771E-02  0.1149236E+00
         21   -1    0    0  501  502  0.00000000000E+00  0.00000000000E+00  0.29521843993E+03  0.29521843993E+03  0.00000000000E+00 0.  1.
         21   -1    0    0  502  503 -0.00000000000E+00 -0.00000000000E+00 -0.13806846276E+03  0.13806846276E+03  0.00000000000E+00 0.  1.
          6    1    1    2  501    0 -0.63516650104E+02  0.79220331459E+02  0.54078727910E+02  0.20775883752E+03  0.17300000000E+03 0.  1.
         -6    1    1    2    0  503  0.63516650104E+02 -0.79220331459E+02  0.10307124926E+03  0.22552806517E+03  0.17300000000E+03 0.  1.
<mgrwt>
<rscale>  2 0.20059717E+03</rscale>
<asrwt>0</asrwt>
<pdfrwt beam="1">  1       21 0.45418221E-01 0.20059717E+03</pdfrwt>
<pdfrwt beam="2">  1       21 0.21241302E-01 0.20059717E+03</pdfrwt>
<totfact> 0.95563671E+04</totfact>
</mgrwt>
</event>
<event>
 4    1  0.4263413E+000  0.3957397E+03  0.7546771E-02  0.1045265E+00
         21   -1    0    0  501  502  0.00000000000E+00  0.00000000000E+00  0.22683427977E+04  0.22683427977E+04  0.00000000000E+00 0.  1.
         21   -1    0    0  502  503 -0.00000000000E+00 -0.00000000000E+00 -0.69664671914E+02  0.69664671914E+02  0.00000000000E+00 0. -1.
          6    1    1    2  501    0  0.24711425487E+03 -0.25615506621E+03  0.98877838624E+03  0.10650317225E+04  0.17300000000E+03 0.  1.
         -6    1    1    2    0  503 -0.24711425487E+03  0.25615506621E+03  0.12098997395E+04  0.12729757470E+04  0.17300000000E+03 0. -1.
<mgrwt>
<rscale>  2 0.39573965E+03</rscale>
<asrwt>0</asrwt>
<pdfrwt beam="1">  1       21 0.34897576E+00 0.39573965E+03</pdfrwt>
<pdfrwt beam="2">  1       21 0.10717644E-01 0.39573965E+03</pdfrwt>
<totfact> 0.10464986E+03</totfact>
</mgrwt>
</event>
<event>
 4    1  0.4263413E+000  0.1998438E+03  0.7546771E-02  0.1149871E+00
         21   -1    0    0  503  502  0.00000000000E+00  0.00000000000E+00  0.12869461065E+03  0.12869461065E+03  0.00000000000E+00 0. -1.
         21   -1    0    0  501  503 -0.00000000000E+00 -0.00000000000E+00 -0.49765026216E+03  0.49765026216E+03  0.00000000000E+00 0. -1.
          6    1    1    2  501    0  0.54083669967E+02 -0.84163632439E+02 -0.37661700710E+03  0.42635423115E+03  0.17300000000E+03 0. -1.
         -6    1    1    2    0  502 -0.54083669967E+02  0.84163632439E+02  0.76613555927E+01  0.19999064166E+03  0.17300000000E+03 0. -1.
<mgrwt>
<rscale>  2 0.19984384E+03</rscale>
<asrwt>0</asrwt>
<pdfrwt beam="1">  1       21 0.19799171E-01 0.19984384E+03</pdfrwt>
<pdfrwt beam="2">  1       21 0.76561578E-01 0.19984384E+03</pdfrwt>
<totfact> 0.35575310E+04</totfact>
</mgrwt>
</event>
<event>
 4    1  0.4263413E+000  0.2738251E+03  0.7546771E-02  0.1099110E+00
         21   -1    0    0  503  502  0.00000000000E+00  0.00000000000E+00  0.24363641936E+03  0.24363641936E+03  0.00000000000E+00 0.  1.
         21   -1    0    0  501  503 -0.00000000000E+00 -0.00000000000E+00 -0.39416046464E+03  0.39416046464E+03  0.00000000000E+00 0. -1.
          6    1    1    2  501    0 -0.21214482908E+03  0.67655374132E+01 -0.22457163352E+03  0.35413644204E+03  0.17300000000E+03 0. -1.
         -6    1    1    2    0  502  0.21214482908E+03 -0.67655374132E+01  0.74047588239E+02  0.28366044195E+03  0.17300000000E+03 0.  1.
<mgrwt>
<rscale>  2 0.27382513E+03</rscale>
<asrwt>0</asrwt>
<pdfrwt beam="1">  1       21 0.37482526E-01 0.27382513E+03</pdfrwt>
<pdfrwt beam="2">  1       21 0.60640071E-01 0.27382513E+03</pdfrwt>
<totfact> 0.16642160E+04</totfact>
</mgrwt>
</event>
<event>
 4    1  0.4263413E+000  0.3087186E+03  0.7546771E-02  0.1080962E+00
         21   -1    0    0  503  502  0.00000000000E+00  0.00000000000E+00  0.19924330779E+03  0.19924330779E+03  0.00000000000E+00 0. -1.
         21   -1    0    0  501  503 -0.00000000000E+00 -0.00000000000E+00 -0.54919063244E+03  0.54919063244E+03  0.00000000000E+00 0.  1.
          6    1    1    2  501    0 -0.21412167996E+03  0.13975012686E+03 -0.30937887873E+03  0.43706118838E+03  0.17300000000E+03 0. -1.
         -6    1    1    2    0  502  0.21412167996E+03 -0.13975012686E+03 -0.40568445924E+02  0.31137275185E+03  0.17300000000E+03 0.  1.
<mgrwt>
<rscale>  2 0.30871863E+03</rscale>
<asrwt>0</asrwt>
<pdfrwt beam="1">  1       21 0.30652817E-01 0.30871863E+03</pdfrwt>
<pdfrwt beam="2">  1       21 0.84490866E-01 0.30871863E+03</pdfrwt>
<totfact> 0.11652761E+04</totfact>
</mgrwt>
</event>
<event>
 4    1  0.4263413E+000  0.2261612E+03  0.7546771E-02  0.1129371E+00
         21   -1    0    0  503  502  0.00000000000E+00  0.00000000000E+00  0.11285452318E+04  0.11285452318E+04  0.00000000000E+00 0. -1.
         21   -1    0    0  501  503 -0.00000000000E+00 -0.00000000000E+00 -0.49575442190E+02  0.49575442190E+02  0.00000000000E+00 0.  1.
          6    1    1    2  501    0 -0.59093220983E+02  0.13314603115E+03  0.36695915850E+03  0.43105440305E+03  0.17300000000E+03 0.  1.
         -6    1    1    2    0  502  0.59093220983E+02 -0.13314603115E+03  0.71201063115E+03  0.74706627099E+03  0.17300000000E+03 0. -1.
<mgrwt>
<rscale>  2 0.22616117E+03</rscale>
<asrwt>0</asrwt>
<pdfrwt beam="1">  1       21 0.17362232E+00 0.22616117E+03</pdfrwt>
<pdfrwt beam="2">  1       21 0.76269920E-02 0.22616117E+03</pdfrwt>
<totfact> 0.25680400E+04</totfact>
</mgrwt>
</event>
<event>
 4    1  0.4263413E+000  0.2142073E+03  0.7546771E-02  0.1138277E+00
         21   -1    0    0  503  502  0.00000000000E+00  0.00000000000E+00  0.50512570455E+02  0.50512570455E+02  0.00000000000E+00 0.  1.
         21   -1    0    0  501  503 -0.00000000000E+00 -0.00000000000E+00 -0.12654604533E+04  0.12654604533E+04  0.00000000000E+00 0.  1.
          6    1    1    2  501    0  0.57394529145E+02 -0.11252393638E+03 -0.95699538144E+03  0.98067575087E+03  0.17300000000E+03 0.  1.
         -6    1    1    2    0  502 -0.57394529145E+02  0.11252393638E+03 -0.25795250144E+03  0.33529727293E+03  0.17300000000E+03 0.  1.
<mgrwt>
<rscale>  2 0.21420730E+03</rscale>
<asrwt>0</asrwt>
<pdfrwt beam="1">  1       21 0.77711653E-02 0.21420730E+03</pdfrwt>
<pdfrwt beam="2">  1       21 0.19468621E+00 0.21420730E+03</pdfrwt>
<totfact> 0.18050652E+04</totfact>
</mgrwt>
</event>
<event>
 4    1  0.4263413E+000  0.2123554E+03  0.7546771E-02  0.1139714E+00
         21   -1    0    0  501  502  0.00000000000E+00  0.00000000000E+00  0.25817496253E+03  0.25817496253E+03  0.00000000000E+00 0.  1.
         21   -1    0    0  502  503 -0.00000000000E+00 -0.00000000000E+00 -0.45541492619E+03  0.45541492619E+03  0.00000000000E+00 0.  1.
          6    1    1    2  501    0  0.10962669732E+03 -0.56105249825E+02  0.18151854723E+03  0.27936319516E+03  0.17300000000E+03 0. -1.
         -6    1    1    2    0  503 -0.10962669732E+03  0.56105249825E+02 -0.37875851089E+03  0.43422669356E+03  0.17300000000E+03 0. -1.
<mgrwt>
<rscale>  2 0.21235539E+03</rscale>
<asrwt>0</asrwt>
<pdfrwt beam="1">  1       21 0.39719225E-01 0.21235539E+03</pdfrwt>
<pdfrwt beam="2">  1       21 0.70063836E-01 0.21235539E+03</pdfrwt>
<totfact> 0.11151003E+04</totfact>
</mgrwt>
</event>
<event>
 4    1  0.4263413E+000  0.2131664E+03  0.7546771E-02  0.1139083E+00
         21   -1    0    0  501  502  0.00000000000E+00  0.00000000000E+00  0.47272220883E+02  0.47272220883E+02  0.00000000000E+00 0.  1.
         21   -1    0    0  502  503 -0.00000000000E+00 -0.00000000000E+00 -0.98280234575E+03  0.98280234575E+03  0.00000000000E+00 0.  1.
          6    1    1    2  501    0 -0.11848412172E+03 -0.38372205108E+02 -0.54405395821E+03  0.58432407333E+03  0.17300000000E+03 0.  1.
         -6    1    1    2    0  503  0.11848412172E+03  0.38372205108E+02 -0.39147616665E+03  0.44575049330E+03  0.17300000000E+03 0.  1.
<mgrwt>
<rscale>  2 0.21316640E+03</rscale>
<asrwt>0</asrwt>
<pdfrwt beam="1">  1       21 0.72726493E-02 0.21316640E+03</pdfrwt>
<pdfrwt beam="2">  1       21 0.15120036E+00 0.21316640E+03</pdfrwt>
<totfact> 0.40950667E+04</totfact>
</mgrwt>
</event>
<event>
 4    1  0.4263413E+000  0.2230278E+03  0.7546771E-02  0.1131646E+00
         21   -1    0    0  503  502  0.00000000000E+00  0.00000000000E+00  0.19659603095E+03  0.19659603095E+03  0.00000000000E+00 0. -1.
         21   -1    0    0  501  503 -0.00000000000E+00 -0.00000000000E+00 -0.25367462129E+03  0.25367462129E+03  0.00000000000E+00 0. -1.
          6    1    1    2  501    0  0.11349974903E+03  0.83247847082E+02 -0.17043635194E+02  0.22367807799E+03  0.17300000000E+03 0. -1.
         -6    1    1    2    0  502 -0.11349974903E+03 -0.83247847082E+02 -0.40034955143E+02  0.22659257425E+03  0.17300000000E+03 0. -1.
<mgrwt>
<rscale>  2 0.22302779E+03</rscale>
<asrwt>0</asrwt>
<pdfrwt beam="1">  1       21 0.30245543E-01 0.22302779E+03</pdfrwt>
<pdfrwt beam="2">  1       21 0.39026865E-01 0.22302779E+03</pdfrwt>
<totfact> 0.65514396E+04</totfact>
</mgrwt>
</event>
<event>
 4    1  0.4263413E+000  0.1804836E+03  0.7546771E-02  0.1167336E+00
         21   -1    0    0  501  502  0.00000000000E+00  0.00000000000E+00  0.18836553845E+03  0.18836553845E+03  0.00000000000E+00 0.  1.
         21   -1    0    0  502  503 -0.00000000000E+00 -0.00000000000E+00 -0.18927824602E+03  0.18927824602E+03  0.00000000000E+00 0.  1.
          6    1    1    2  501    0 -0.50124821835E+02  0.11525387749E+02 -0.55946752852E+02  0.18895600409E+03  0.17300000000E+03 0.  1.
         -6    1    1    2    0  503  0.50124821835E+02 -0.11525387749E+02  0.55034045280E+02  0.18868778038E+03  0.17300000000E+03 0.  1.
<mgrwt>
<rscale>  2 0.18048361E+03</rscale>
<asrwt>0</asrwt>
<pdfrwt beam="1">  1       21 0.28979313E-01 0.18048361E+03</pdfrwt>
<pdfrwt beam="2">  1       21 0.29119730E-01 0.18048361E+03</pdfrwt>
<totfact> 0.12924391E+05</totfact>
</mgrwt>
</event>
<event>
 4    1  0.4263413E+000  0.2101551E+03  0.7546771E-02  0.1141443E+00
         21   -1    0    0  503  502  0.00000000000E+00  0.00000000000E+00  0.15108820022E+03  0.15108820022E+03  0.00000000000E+00 0. -1.
         21   -1    0    0  501  503 -0.00000000000E+00 -0.00000000000E+00 -0.32529909215E+03  0.32529909215E+03  0.00000000000E+00 0. -1.
          6    1    1    2  501    0  0.56267172189E+02  0.10521483550E+03 -0.16295435447E+03  0.26593096457E+03  0.17300000000E+03 0. -1.
         -6    1    1    2    0  502 -0.56267172189E+02 -0.10521483550E+03 -0.11256537456E+02  0.21045632780E+03  0.17300000000E+03 0. -1.
<mgrwt>
<rscale>  2 0.21015508E+03</rscale>
<asrwt>0</asrwt>
<pdfrwt beam="1">  1       21 0.23244338E-01 0.21015508E+03</pdfrwt>
<pdfrwt beam="2">  1       21 0.50046015E-01 0.21015508E+03</pdfrwt>
<totfact> 0.65641069E+04</totfact>
</mgrwt>
</event>
<event>
 4    1  0.4263413E+000  0.1929836E+03  0.7546771E-02  0.1155798E+00
         21   -1    0    0  501  502  0.00000000000E+00  0.00000000000E+00  0.10423316489E+03  0.10423316489E+03  0.00000000000E+00 0. -1.
         21   -1    0    0  502  503 -0.00000000000E+00 -0.00000000000E+00 -0.39330009330E+03  0.39330009330E+03  0.00000000000E+00 0. -1.
          6    1    1    2  501    0 -0.39491210554E+02  0.75855862207E+02 -0.69271979392E+02  0.20503969048E+03  0.17300000000E+03 0. -1.
         -6    1    1    2    0  503  0.39491210554E+02 -0.75855862207E+02 -0.21979494901E+03  0.29249356771E+03  0.17300000000E+03 0. -1.
<mgrwt>
<rscale>  2 0.19298359E+03</rscale>
<asrwt>0</asrwt>
<pdfrwt beam="1">  1       21 0.16035871E-01 0.19298359E+03</pdfrwt>
<pdfrwt beam="2">  1       21 0.60507708E-01 0.19298359E+03</pdfrwt>
<totfact> 0.88360594E+04</totfact>
</mgrwt>
</event>
<event>
 4    1  0.4263413E+000  0.2662726E+03  0.7546771E-02  0.1103432E+00
         21   -1    0    0  503  502  0.00000000000E+00  0.00000000000E+00  0.35621492052E+03  0.35621492052E+03  0.00000000000E+00 0. -1.
         21   -1    0    0  501  503 -0.00000000000E+00 -0.00000000000E+00 -0.19995256924E+03  0.19995256924E+03  0.00000000000E+00 0. -1.
          6    1    1    2  501    0 -0.18923707131E+03  0.71843239459E+02  0.59347672770E+02  0.27280628013E+03  0.17300000000E+03 0. -1.
         -6    1    1    2    0  502  0.18923707131E+03 -0.71843239459E+02  0.96914678505E+02  0.28336120963E+03  0.17300000000E+03 0. -1.
<mgrwt>
<rscale>  2 0.26627264E+03</rscale>
<asrwt>0</asrwt>
<pdfrwt beam="1">  1       21 0.54802295E-01 0.26627264E+03</pdfrwt>
<pdfrwt beam="2">  1       21 0.30761934E-01 0.26627264E+03</pdfrwt>
<totfact> 0.30781363E+04</totfact>
</mgrwt>
</event>
<event>
 4    1  0.4263413E+000  0.2351234E+03  0.7546771E-02  0.1123085E+00
         21   -1    0    0  501  502  0.00000000000E+00  0.00000000000E+00  0.69160127444E+03  0.69160127444E+03  0.00000000000E+00 0.  1.
         21   -1    0    0  502  503 -0.00000000000E+00 -0.00000000000E+00 -0.13336662317E+03  0.13336662317E+03  0.00000000000E+00 0. -1.
          6    1    1    2  501    0  0.29997451636E+02 -0.15637825138E+03  0.54020327561E+03  0.58915412550E+03  0.17300000000E+03 0.  1.
         -6    1    1    2    0  503 -0.29997451636E+02  0.15637825138E+03  0.18031375650E+02  0.23581377211E+03  0.17300000000E+03 0.  1.
<mgrwt>
<rscale>  2 0.23512338E+03</rscale>
<asrwt>0</asrwt>
<pdfrwt beam="1">  1       21 0.10640019E+00 0.23512338E+03</pdfrwt>
<pdfrwt beam="2">  1       21 0.20517942E-01 0.23512338E+03</pdfrwt>
<totfact> 0.15169535E+04</totfact>
</mgrwt>
</event>
<event>
 4    1  0.4263413E+000  0.2177885E+03  0.7546771E-02  0.1135543E+00
         21   -1    0    0  503  502  0.00000000000E+00  0.00000000000E+00  0.55061739021E+03  0.55061739021E+03  0.00000000000E+00 0.  1.
         21   -1    0    0  501  503 -0.00000000000E+00 -0.00000000000E+00 -0.17559619982E+03  0.17559619982E+03  0.00000000000E+00 0.  1.
          6    1    1    2  501    0  0.12513001726E+03  0.42957187618E+02 -0.71653436542E+02  0.22927288578E+03  0.17300000000E+03 0.  1.
         -6    1    1    2    0  502 -0.12513001726E+03 -0.42957187618E+02  0.44667462694E+03  0.49694070425E+03  0.17300000000E+03 0.  1.
<mgrwt>
<rscale>  2 0.21778852E+03</rscale>
<asrwt>0</asrwt>
<pdfrwt beam="1">  1       21 0.84710367E-01 0.21778852E+03</pdfrwt>
<pdfrwt beam="2">  1       21 0.27014800E-01 0.21778852E+03</pdfrwt>
<totfact> 0.15520650E+04</totfact>
</mgrwt>
</event>
<event>
 4    1  0.4263413E+000  0.1792232E+03  0.7546771E-02  0.1168557E+00
         21   -1    0    0  503  502  0.00000000000E+00  0.00000000000E+00  0.10388398912E+03  0.10388398912E+03  0.00000000000E+00 0.  1.
         21   -1    0    0  501  503 -0.00000000000E+00 -0.00000000000E+00 -0.32862865232E+03  0.32862865232E+03  0.00000000000E+00 0.  1.
          6    1    1    2  501    0 -0.41680639846E+02 -0.21323347543E+02 -0.59790700842E+02  0.18893355656E+03  0.17300000000E+03 0.  1.
         -6    1    1    2    0  502  0.41680639846E+02  0.21323347543E+02 -0.16495396236E+03  0.24357908487E+03  0.17300000000E+03 0.  1.
<mgrwt>
<rscale>  2 0.17922322E+03</rscale>
<asrwt>0</asrwt>
<pdfrwt beam="1">  1       21 0.15982152E-01 0.17922322E+03</pdfrwt>
<pdfrwt beam="2">  1       21 0.50558253E-01 0.17922322E+03</pdfrwt>
<totfact> 0.13068771E+05</totfact>
</mgrwt>
</event>
<event>
 4    1  0.4263413E+000  0.2029689E+03  0.7546771E-02  0.1147258E+00
         21   -1    0    0  503  502  0.00000000000E+00  0.00000000000E+00  0.12348497759E+04  0.12348497759E+04  0.00000000000E+00 0.  1.
         21   -1    0    0  501  503 -0.00000000000E+00 -0.00000000000E+00 -0.31828678349E+03  0.31828678349E+03  0.00000000000E+00 0.  1.
          6    1    1    2  501    0 -0.96200184865E+02 -0.44865530755E+02 -0.27646220111E+03  0.34296900744E+03  0.17300000000E+03 0.  1.
         -6    1    1    2    0  502  0.96200184865E+02  0.44865530755E+02  0.11930251936E+04  0.12101675520E+04  0.17300000000E+03 0.  1.
<mgrwt>
<rscale>  2 0.20296894E+03</rscale>
<asrwt>0</asrwt>
<pdfrwt beam="1">  1       21 0.18997689E+00 0.20296894E+03</pdfrwt>
<pdfrwt beam="2">  1       21 0.48967198E-01 0.20296894E+03</pdfrwt>
<totfact> 0.61357047E+02</totfact>
</mgrwt>
</event>
<event>
 4    1  0.4263413E+000  0.1942516E+03  0.7546771E-02  0.1154682E+00
         21   -1    0    0  503  502  0.00000000000E+00  0.00000000000E+00  0.61131112934E+03  0.61131112934E+03  0.00000000000E+00 0.  1.
         21   -1    0    0  501  503 -0.00000000000E+00 -0.00000000000E+00 -0.61784235370E+02  0.61784235370E+02  0.00000000000E+00 0.  1.
          6    1    1    2  501    0  0.61846448575E+02  0.63084988710E+02  0.26441773899E+03  0.32810126439E+03  0.17300000000E+03 0.  1.
         -6    1    1    2    0  502 -0.61846448575E+02 -0.63084988710E+02  0.28510915499E+03  0.34499410033E+03  0.17300000000E+03 0.  1.
<mgrwt>
<rscale>  2 0.19425164E+03</rscale>
<asrwt>0</asrwt>
<pdfrwt beam="1">  1       21 0.94047862E-01 0.19425164E+03</pdfrwt>
<pdfrwt beam="2">  1       21 0.95052674E-02 0.19425164E+03</pdfrwt>
<totfact> 0.84108621E+04</totfact>
</mgrwt>
</event>
<event>
 4    1  0.4263413E+000  0.2134880E+03  0.7546771E-02  0.1138833E+00
         21   -1    0    0  503  502  0.00000000000E+00  0.00000000000E+00  0.93695376453E+03  0.93695376453E+03  0.00000000000E+00 0. -1.
         21   -1    0    0  501  503 -0.00000000000E+00 -0.00000000000E+00 -0.76808536909E+02  0.76808536909E+02  0.00000000000E+00 0. -1.
          6    1    1    2  501    0 -0.39341890369E+02  0.11874490665E+03  0.12313292673E+03  0.24645254075E+03  0.17300000000E+03 0. -1.
         -6    1    1    2    0  502  0.39341890369E+02 -0.11874490665E+03  0.73701230089E+03  0.76730976069E+03  0.17300000000E+03 0. -1.
<mgrwt>
<rscale>  2 0.21348803E+03</rscale>
<asrwt>0</asrwt>
<pdfrwt beam="1">  1       21 0.14414672E+00 0.21348803E+03</pdfrwt>
<pdfrwt beam="2">  1       21 0.11816699E-01 0.21348803E+03</pdfrwt>
<totfact> 0.19738583E+04</totfact>
</mgrwt>
</event>
<event>
 4    1  0.4263413E+000  0.1918864E+03  0.7546771E-02  0.1156771E+00
         21   -1    0    0  501  502  0.00000000000E+00  0.00000000000E+00  0.16198014954E+03  0.16198014954E+03  0.00000000000E+00 0.  1.
         21   -1    0    0  502  503 -0.00000000000E+00 -0.00000000000E+00 -0.62983940431E+03  0.62983940431E+03  0.00000000000E+00 0.  1.
          6    1    1    2  501    0 -0.58962095234E+02  0.58436917429E+02  0.82573354629E+02  0.20889892505E+03  0.17300000000E+03 0.  1.
         -6    1    1    2    0  503  0.58962095234E+02 -0.58436917429E+02 -0.55043260940E+03  0.58292062880E+03  0.17300000000E+03 0.  1.
<mgrwt>
<rscale>  2 0.19188643E+03</rscale>
<asrwt>0</asrwt>
<pdfrwt beam="1">  1       21 0.24920023E-01 0.19188643E+03</pdfrwt>
<pdfrwt beam="2">  1       21 0.96898371E-01 0.19188643E+03</pdfrwt>
<totfact> 0.13484365E+04</totfact>
</mgrwt>
</event>
<event>
 4    1  0.4263413E+000  0.1972013E+03  0.7546771E-02  0.1152122E+00
         21   -1    0    0  501  502  0.00000000000E+00  0.00000000000E+00  0.48413667789E+03  0.48413667789E+03  0.00000000000E+00 0.  1.
         21   -1    0    0  502  503 -0.00000000000E+00 -0.00000000000E+00 -0.19222196385E+03  0.19222196385E+03  0.00000000000E+00 0.  1.
          6    1    1    2  501    0  0.88523804083E+02  0.33509810521E+02  0.40397792252E+03  0.44954035767E+03  0.17300000000E+03 0.  1.
         -6    1    1    2    0  503 -0.88523804083E+02 -0.33509810521E+02 -0.11206320848E+03  0.22681828406E+03  0.17300000000E+03 0.  1.
<mgrwt>
<rscale>  2 0.19720135E+03</rscale>
<asrwt>0</asrwt>
<pdfrwt beam="1">  1       21 0.74482565E-01 0.19720135E+03</pdfrwt>
<pdfrwt beam="2">  1       21 0.29572610E-01 0.19720135E+03</pdfrwt>
<totfact> 0.17643963E+04</totfact>
</mgrwt>
</event>
<event>
 4    1  0.4263413E+000  0.1859225E+03  0.7546771E-02  0.1162191E+00
         21   -1    0    0  503  502  0.00000000000E+00  0.00000000000E+00  0.34008496289E+02  0.34008496289E+02  0.00000000000E+00 0. -1.
         21   -1    0    0  501  503 -0.00000000000E+00 -0.00000000000E+00 -0.10166860722E+04  0.10166860722E+04  0.00000000000E+00 0. -1.
          6    1    1    2  501    0 -0.13549706195E+02  0.66742676037E+02 -0.49971281611E+03  0.53317921746E+03  0.17300000000E+03 0. -1.
         -6    1    1    2    0  502  0.13549706195E+02 -0.66742676037E+02 -0.48296475977E+03  0.51751535100E+03  0.17300000000E+03 0. -1.
<mgrwt>
<rscale>  2 0.18592251E+03</rscale>
<asrwt>0</asrwt>
<pdfrwt beam="1">  1       21 0.52320760E-02 0.18592251E+03</pdfrwt>
<pdfrwt beam="2">  1       21 0.15641325E+00 0.18592251E+03</pdfrwt>
<totfact> 0.66862821E+04</totfact>
</mgrwt>
</event>
<event>
 4    1  0.4263413E+000  0.2595300E+03  0.7546771E-02  0.1107426E+00
         21   -1    0    0  503  502  0.00000000000E+00  0.00000000000E+00  0.80969594600E+02  0.80969594600E+02  0.00000000000E+00 0. -1.
         21   -1    0    0  501  503 -0.00000000000E+00 -0.00000000000E+00 -0.22413622997E+04  0.22413622997E+04  0.00000000000E+00 0. -1.
          6    1    1    2  501    0  0.17416338588E+03 -0.84225433773E+02 -0.20010069601E+04  0.20177672470E+04  0.17300000000E+03 0. -1.
         -6    1    1    2    0  502 -0.17416338588E+03  0.84225433773E+02 -0.15938574498E+03  0.30456464729E+03  0.17300000000E+03 0. -1.
<mgrwt>
<rscale>  2 0.25952998E+03</rscale>
<asrwt>0</asrwt>
<pdfrwt beam="1">  1       21 0.12456860E-01 0.25952998E+03</pdfrwt>
<pdfrwt beam="2">  1       21 0.34482499E+00 0.25952998E+03</pdfrwt>
<totfact> 0.94702980E+02</totfact>
</mgrwt>
</event>
<event>
 4    1  0.4263413E+000  0.2329156E+03  0.7546771E-02  0.1124604E+00
         21   -1    0    0  503  502  0.00000000000E+00  0.00000000000E+00  0.10919531441E+04  0.10919531441E+04  0.00000000000E+00 0.  1.
         21   -1    0    0  501  503 -0.00000000000E+00 -0.00000000000E+00 -0.50774198059E+02  0.50774198059E+02  0.00000000000E+00 0.  1.
          6    1    1    2  501    0  0.15330072588E+03  0.28627662593E+02  0.60441575568E+03  0.64774073620E+03  0.17300000000E+03 0.  1.
         -6    1    1    2    0  502 -0.15330072588E+03 -0.28627662593E+02  0.43676319038E+03  0.49498660597E+03  0.17300000000E+03 0.  1.
<mgrwt>
<rscale>  2 0.23291555E+03</rscale>
<asrwt>0</asrwt>
<pdfrwt beam="1">  1       21 0.16799277E+00 0.23291555E+03</pdfrwt>
<pdfrwt beam="2">  1       21 0.78114159E-02 0.23291555E+03</pdfrwt>
<totfact> 0.26884538E+04</totfact>
</mgrwt>
</event>
<event>
 4    1  0.4263413E+000  0.1964562E+03  0.7546771E-02  0.1152764E+00
         21   -1    0    0  503  502  0.00000000000E+00  0.00000000000E+00  0.95892601835E+02  0.95892601835E+02  0.00000000000E+00 0.  1.
         21   -1    0    0  501  503 -0.00000000000E+00 -0.00000000000E+00 -0.51587308825E+03  0.51587308825E+03  0.00000000000E+00 0. -1.
          6    1    1    2  501    0 -0.90084266342E+02 -0.23470682153E+02 -0.35339815457E+03  0.40433315918E+03  0.17300000000E+03 0.  1.
         -6    1    1    2    0  502  0.90084266342E+02  0.23470682153E+02 -0.66582331849E+02  0.20743253090E+03  0.17300000000E+03 0.  1.
<mgrwt>
<rscale>  2 0.19645622E+03</rscale>
<asrwt>0</asrwt>
<pdfrwt beam="1">  1       21 0.14752708E-01 0.19645622E+03</pdfrwt>
<pdfrwt beam="2">  1       21 0.79365089E-01 0.19645622E+03</pdfrwt>
<totfact> 0.56516531E+04</totfact>
</mgrwt>
</event>
<event>
 4    1  0.4263413E+000  0.1797021E+03  0.7546771E-02  0.1168092E+00
         21   -1    0    0  501  502  0.00000000000E+00  0.00000000000E+00  0.52559057986E+03  0.52559057986E+03  0.00000000000E+00 0. -1.
         21   -1    0    0  502  503 -0.00000000000E+00 -0.00000000000E+00 -0.68038095451E+02  0.68038095451E+02  0.00000000000E+00 0.  1.
          6    1    1    2  501    0  0.31195926850E+02 -0.37291765409E+02  0.13635282878E+03  0.22557693928E+03  0.17300000000E+03 0. -1.
         -6    1    1    2    0  503 -0.31195926850E+02  0.37291765409E+02  0.32119965563E+03  0.36805173603E+03  0.17300000000E+03 0. -1.
<mgrwt>
<rscale>  2 0.17970215E+03</rscale>
<asrwt>0</asrwt>
<pdfrwt beam="1">  1       21 0.80860087E-01 0.17970215E+03</pdfrwt>
<pdfrwt beam="2">  1       21 0.10467400E-01 0.17970215E+03</pdfrwt>
<totfact> 0.10099100E+05</totfact>
</mgrwt>
</event>
<event>
 4    1  0.4263413E+000  0.2082784E+03  0.7546771E-02  0.1142937E+00
         21   -1    0    0  503  502  0.00000000000E+00  0.00000000000E+00  0.11381958584E+04  0.11381958584E+04  0.00000000000E+00 0.  1.
         21   -1    0    0  501  503 -0.00000000000E+00 -0.00000000000E+00 -0.38338936970E+02  0.38338936970E+02  0.00000000000E+00 0.  1.
          6    1    1    2  501    0  0.50483724642E+02 -0.10441395215E+03  0.50475333143E+03  0.54603645066E+03  0.17300000000E+03 0.  1.
         -6    1    1    2    0  502 -0.50483724642E+02  0.10441395215E+03  0.59510359003E+03  0.63049834474E+03  0.17300000000E+03 0.  1.
<mgrwt>
<rscale>  2 0.20827837E+03</rscale>
<asrwt>0</asrwt>
<pdfrwt beam="1">  1       21 0.17510703E+00 0.20827837E+03</pdfrwt>
<pdfrwt beam="2">  1       21 0.58982989E-02 0.20827837E+03</pdfrwt>
<totfact> 0.39523002E+04</totfact>
</mgrwt>
</event>
<event>
 4    1  0.4263413E+000  0.2361894E+03  0.7546771E-02  0.1122358E+00
         21   -1    0    0  503  502  0.00000000000E+00  0.00000000000E+00  0.65712416520E+03  0.65712416520E+03  0.00000000000E+00 0. -1.
         21   -1    0    0  501  503 -0.00000000000E+00 -0.00000000000E+00 -0.10543967767E+03  0.10543967767E+03  0.00000000000E+00 0. -1.
          6    1    1    2  501    0  0.40296300597E+02  0.15566838165E+03  0.10753149794E+03  0.25951581828E+03  0.17300000000E+03 0. -1.
         -6    1    1    2    0  502 -0.40296300597E+02 -0.15566838165E+03  0.44415298958E+03  0.50304802459E+03  0.17300000000E+03 0. -1.
<mgrwt>
<rscale>  2 0.23618941E+03</rscale>
<asrwt>0</asrwt>
<pdfrwt beam="1">  1       21 0.10109602E+00 0.23618941E+03</pdfrwt>
<pdfrwt beam="2">  1       21 0.16221489E-01 0.23618941E+03</pdfrwt>
<totfact> 0.26553402E+04</totfact>
</mgrwt>
</event>
<event>
 4    1  0.4263413E+000  0.1960870E+03  0.7546771E-02  0.1153083E+00
         21   -1    0    0  503  502  0.00000000000E+00  0.00000000000E+00  0.67669809629E+02  0.67669809629E+02  0.00000000000E+00 0.  1.
         21   -1    0    0  501  503 -0.00000000000E+00 -0.00000000000E+00 -0.85229583567E+03  0.85229583567E+03  0.00000000000E+00 0. -1.
          6    1    1    2  501    0  0.51172730344E+02 -0.76827511708E+02 -0.65788203053E+03  0.68648297938E+03  0.17300000000E+03 0. -1.
         -6    1    1    2    0  502 -0.51172730344E+02  0.76827511708E+02 -0.12674399551E+03  0.23348266592E+03  0.17300000000E+03 0.  1.
<mgrwt>
<rscale>  2 0.19608701E+03</rscale>
<asrwt>0</asrwt>
<pdfrwt beam="1">  1       21 0.10410740E-01 0.19608701E+03</pdfrwt>
<pdfrwt beam="2">  1       21 0.13112244E+00 0.19608701E+03</pdfrwt>
<totfact> 0.31897946E+04</totfact>
</mgrwt>
</event>
<event>
 4    1  0.4263413E+000  0.3080377E+03  0.7546771E-02  0.1081290E+00
         21   -1    0    0  501  502  0.00000000000E+00  0.00000000000E+00  0.94288585286E+02  0.94288585286E+02  0.00000000000E+00 0. -1.
         21   -1    0    0  502  503 -0.00000000000E+00 -0.00000000000E+00 -0.14012864610E+04  0.14012864610E+04  0.00000000000E+00 0.  1.
          6    1    1    2  501    0 -0.25429188864E+03  0.17142000857E+02 -0.25650947558E+03  0.40085449216E+03  0.17300000000E+03 0. -1.
         -6    1    1    2    0  503  0.25429188864E+03 -0.17142000857E+02 -0.10504884001E+04  0.10947205541E+04  0.17300000000E+03 0.  1.
<mgrwt>
<rscale>  2 0.30803768E+03</rscale>
<asrwt>0</asrwt>
<pdfrwt beam="1">  1       21 0.14505937E-01 0.30803768E+03</pdfrwt>
<pdfrwt beam="2">  1       21 0.21558253E+00 0.30803768E+03</pdfrwt>
<totfact> 0.40822134E+03</totfact>
</mgrwt>
</event>
<event>
 4    1  0.4263413E+000  0.1838676E+03  0.7546771E-02  0.1164112E+00
         21   -1    0    0  501  502  0.00000000000E+00  0.00000000000E+00  0.20158774109E+03  0.20158774109E+03  0.00000000000E+00 0. -1.
         21   -1    0    0  502  503 -0.00000000000E+00 -0.00000000000E+00 -0.18263518562E+03  0.18263518562E+03  0.00000000000E+00 0. -1.
          6    1    1    2  501    0 -0.28996852166E+02 -0.55113467649E+02  0.64403899948E+02  0.19482087691E+03  0.17300000000E+03 0. -1.
         -6    1    1    2    0  503  0.28996852166E+02  0.55113467649E+02 -0.45451344480E+02  0.18940204980E+03  0.17300000000E+03 0. -1.
<mgrwt>
<rscale>  2 0.18386765E+03</rscale>
<asrwt>0</asrwt>
<pdfrwt beam="1">  1       21 0.31013499E-01 0.18386765E+03</pdfrwt>
<pdfrwt beam="2">  1       21 0.28097721E-01 0.18386765E+03</pdfrwt>
<totfact> 0.12122683E+05</totfact>
</mgrwt>
</event>
<event>
 4    1  0.4263413E+000  0.2264992E+03  0.7546771E-02  0.1129128E+00
         21   -1    0    0  501  502  0.00000000000E+00  0.00000000000E+00  0.88469359873E+03  0.88469359873E+03  0.00000000000E+00 0. -1.
         21   -1    0    0  502  503 -0.00000000000E+00 -0.00000000000E+00 -0.70664009276E+02  0.70664009276E+02  0.00000000000E+00 0. -1.
          6    1    1    2  501    0  0.12339780945E+03 -0.78395485588E+02  0.60932746861E+03  0.65006294737E+03  0.17300000000E+03 0. -1.
         -6    1    1    2    0  503 -0.12339780945E+03  0.78395485588E+02  0.20470212084E+03  0.30529466064E+03  0.17300000000E+03 0. -1.
<mgrwt>
<rscale>  2 0.22649916E+03</rscale>
<asrwt>0</asrwt>
<pdfrwt beam="1">  1       21 0.13610670E+00 0.22649916E+03</pdfrwt>
<pdfrwt beam="2">  1       21 0.10871387E-01 0.22649916E+03</pdfrwt>
<totfact> 0.26386941E+04</totfact>
</mgrwt>
</event>
<event>
 4    1  0.4263413E+000  0.2322200E+03  0.7546771E-02  0.1125087E+00
         21   -1    0    0  501  502  0.00000000000E+00  0.00000000000E+00  0.25867244090E+03  0.25867244090E+03  0.00000000000E+00 0. -1.
         21   -1    0    0  502  503 -0.00000000000E+00 -0.00000000000E+00 -0.22251320059E+03  0.22251320059E+03  0.00000000000E+00 0.  1.
          6    1    1    2  501    0  0.14511959568E+03 -0.54198259845E+02  0.78515617845E+02  0.24513435228E+03  0.17300000000E+03 0. -1.
         -6    1    1    2    0  503 -0.14511959568E+03  0.54198259845E+02 -0.42356377530E+02  0.23605128921E+03  0.17300000000E+03 0.  1.
<mgrwt>
<rscale>  2 0.23222004E+03</rscale>
<asrwt>0</asrwt>
<pdfrwt beam="1">  1       21 0.39795760E-01 0.23222004E+03</pdfrwt>
<pdfrwt beam="2">  1       21 0.34232800E-01 0.23222004E+03</pdfrwt>
<totfact> 0.49136676E+04</totfact>
</mgrwt>
</event>
<event>
 4    1  0.4263413E+000  0.2544729E+03  0.7546771E-02  0.1110510E+00
         21   -1    0    0  503  502  0.00000000000E+00  0.00000000000E+00  0.52493441316E+03  0.52493441316E+03  0.00000000000E+00 0.  1.
         21   -1    0    0  501  503 -0.00000000000E+00 -0.00000000000E+00 -0.13828495528E+03  0.13828495528E+03  0.00000000000E+00 0. -1.
          6    1    1    2  501    0  0.18303784115E+03  0.36394911465E+02  0.84386196308E+02  0.26809974077E+03  0.17300000000E+03 0.  1.
         -6    1    1    2    0  502 -0.18303784115E+03 -0.36394911465E+02  0.30226326157E+03  0.39511962767E+03  0.17300000000E+03 0.  1.
<mgrwt>
<rscale>  2 0.25447287E+03</rscale>
<asrwt>0</asrwt>
<pdfrwt beam="1">  1       21 0.80759139E-01 0.25447287E+03</pdfrwt>
<pdfrwt beam="2">  1       21 0.21274609E-01 0.25447287E+03</pdfrwt>
<totfact> 0.26809908E+04</totfact>
</mgrwt>
</event>
<event>
 4    1  0.4263413E+000  0.1881813E+03  0.7546771E-02  0.1160112E+00
         21   -1    0    0  503  502  0.00000000000E+00  0.00000000000E+00  0.28146285279E+02  0.28146285279E+02  0.00000000000E+00 0.  1.
         21   -1    0    0  501  503 -0.00000000000E+00 -0.00000000000E+00 -0.15448770793E+04  0.15448770793E+04  0.00000000000E+00 0. -1.
          6    1    1    2  501    0  0.73289956407E+02 -0.10572338654E+02 -0.10972049466E+04  0.11132254430E+04  0.17300000000E+03 0. -1.
         -6    1    1    2    0  502 -0.73289956407E+02  0.10572338654E+02 -0.41952584745E+03  0.45979792163E+03  0.17300000000E+03 0.  1.
<mgrwt>
<rscale>  2 0.18818127E+03</rscale>
<asrwt>0</asrwt>
<pdfrwt beam="1">  1       21 0.43301975E-02 0.18818127E+03</pdfrwt>
<pdfrwt beam="2">  1       21 0.23767341E+00 0.18818127E+03</pdfrwt>
<totfact> 0.27075639E+04</totfact>
</mgrwt>
</event>
<event>
 4    1  0.4263413E+000  0.1933786E+03  0.7546771E-02  0.1155449E+00
         21   -1    0    0  503  502  0.00000000000E+00  0.00000000000E+00  0.17916599914E+03  0.17916599914E+03  0.00000000000E+00 0. -1.
         21   -1    0    0  501  503 -0.00000000000E+00 -0.00000000000E+00 -0.29540762057E+03  0.29540762057E+03  0.00000000000E+00 0.  1.
          6    1    1    2  501    0  0.69389719564E+02 -0.51491409815E+02 -0.18666264455E+03  0.26877172719E+03  0.17300000000E+03 0.  1.
         -6    1    1    2    0  502 -0.69389719564E+02  0.51491409815E+02  0.70421023128E+02  0.20580189252E+03  0.17300000000E+03 0. -1.
<mgrwt>
<rscale>  2 0.19337864E+03</rscale>
<asrwt>0</asrwt>
<pdfrwt beam="1">  1       21 0.27564000E-01 0.19337864E+03</pdfrwt>
<pdfrwt beam="2">  1       21 0.45447326E-01 0.19337864E+03</pdfrwt>
<totfact> 0.58298006E+04</totfact>
</mgrwt>
</event>
<event>
 4    1  0.4263413E+000  0.1779082E+03  0.7546771E-02  0.1169843E+00
         21   -1    0    0  503  502  0.00000000000E+00  0.00000000000E+00  0.55292369427E+03  0.55292369427E+03  0.00000000000E+00 0.  1.
         21   -1    0    0  501  503 -0.00000000000E+00 -0.00000000000E+00 -0.70598428689E+02  0.70598428689E+02  0.00000000000E+00 0.  1.
          6    1    1    2  501    0  0.33799627191E+02 -0.24081394470E+02  0.10556755052E+03  0.20687154488E+03  0.17300000000E+03 0.  1.
         -6    1    1    2    0  502 -0.33799627191E+02  0.24081394470E+02  0.37675771506E+03  0.41665057808E+03  0.17300000000E+03 0.  1.
<mgrwt>
<rscale>  2 0.17790820E+03</rscale>
<asrwt>0</asrwt>
<pdfrwt beam="1">  1       21 0.85065181E-01 0.17790820E+03</pdfrwt>
<pdfrwt beam="2">  1       21 0.10861297E-01 0.17790820E+03</pdfrwt>
<totfact> 0.84368760E+04</totfact>
</mgrwt>
</event>
<event>
 4    1  0.4263413E+000  0.2273424E+03  0.7546771E-02  0.1128524E+00
         21   -1    0    0  503  502  0.00000000000E+00  0.00000000000E+00  0.40886017520E+03  0.40886017520E+03  0.00000000000E+00 0. -1.
         21   -1    0    0  501  503 -0.00000000000E+00 -0.00000000000E+00 -0.12666905609E+03  0.12666905609E+03  0.00000000000E+00 0. -1.
          6    1    1    2  501    0  0.56959818378E+02 -0.13605561695E+03  0.15317400269E+03  0.27412921572E+03  0.17300000000E+03 0. -1.
         -6    1    1    2    0  502 -0.56959818378E+02  0.13605561695E+03  0.12901711642E+03  0.26140001557E+03  0.17300000000E+03 0. -1.
<mgrwt>
<rscale>  2 0.22734237E+03</rscale>
<asrwt>0</asrwt>
<pdfrwt beam="1">  1       21 0.62901564E-01 0.22734237E+03</pdfrwt>
<pdfrwt beam="2">  1       21 0.19487547E-01 0.22734237E+03</pdfrwt>
<totfact> 0.55809384E+04</totfact>
</mgrwt>
</event>
<event>
 4    1  0.4263413E+000  0.1850854E+03  0.7546771E-02  0.1162970E+00
         21   -1    0    0  503  502  0.00000000000E+00  0.00000000000E+00  0.31222548251E+04  0.31222548251E+04  0.00000000000E+00 0.  1.
         21   -1    0    0  501  503 -0.00000000000E+00 -0.00000000000E+00 -0.11525484369E+02  0.11525484369E+02  0.00000000000E+00 0.  1.
          6    1    1    2  501    0  0.14302193677E+02 -0.64210978579E+02  0.18988113362E+04  0.19078105496E+04  0.17300000000E+03 0.  1.
         -6    1    1    2    0  502 -0.14302193677E+02  0.64210978579E+02  0.12119180045E+04  0.12259697599E+04  0.17300000000E+03 0.  1.
<mgrwt>
<rscale>  2 0.18508539E+03</rscale>
<asrwt>0</asrwt>
<pdfrwt beam="1">  1       21 0.48034622E+00 0.18508539E+03</pdfrwt>
<pdfrwt beam="2">  1       21 0.17731539E-02 0.18508539E+03</pdfrwt>
<totfact> 0.39284427E+03</totfact>
</mgrwt>
</event>
<event>
 4    1  0.4263413E+000  0.2100749E+03  0.7546771E-02  0.1141507E+00
         21   -1    0    0  503  502  0.00000000000E+00  0.00000000000E+00  0.16575091252E+04  0.16575091252E+04  0.00000000000E+00 0.  1.
         21   -1    0    0  501  503 -0.00000000000E+00 -0.00000000000E+00 -0.29324188974E+02  0.29324188974E+02  0.00000000000E+00 0.  1.
          6    1    1    2  501    0 -0.70741473917E+02 -0.95906869771E+02  0.55821556189E+03  0.59643616368E+03  0.17300000000E+03 0.  1.
         -6    1    1    2    0  502  0.70741473917E+02  0.95906869771E+02  0.10699693743E+04  0.10903971505E+04  0.17300000000E+03 0.  1.
<mgrwt>
<rscale>  2 0.21007495E+03</rscale>
<asrwt>0</asrwt>
<pdfrwt beam="1">  1       21 0.25500133E+00 0.21007495E+03</pdfrwt>
<pdfrwt beam="2">  1       21 0.45114150E-02 0.21007495E+03</pdfrwt>
<totfact> 0.19594718E+04</totfact>
</mgrwt>
</event>
<event>
 4    1  0.4263413E+000  0.1850577E+03  0.7546771E-02  0.1162996E+00
         21   -1    0    0  501  502  0.00000000000E+00  0.00000000000E+00  0.62933723176E+02  0.62933723176E+02  0.00000000000E+00 0.  1.
         21   -1    0    0  502  503 -0.00000000000E+00 -0.00000000000E+00 -0.75705435262E+03  0.75705435262E+03  0.00000000000E+00 0.  1.
          6    1    1    2  501    0 -0.26612550320E+02  0.60075914179E+02 -0.12964468713E+03  0.22595151737E+03  0.17300000000E+03 0.  1.
         -6    1    1    2    0  503  0.26612550320E+02 -0.60075914179E+02 -0.56447594232E+03  0.59403655843E+03  0.17300000000E+03 0.  1.
<mgrwt>
<rscale>  2 0.18505768E+03</rscale>
<asrwt>0</asrwt>
<pdfrwt beam="1">  1       21 0.96821112E-02 0.18505768E+03</pdfrwt>
<pdfrwt beam="2">  1       21 0.11646990E+00 0.18505768E+03</pdfrwt>
<totfact> 0.49016905E+04</totfact>
</mgrwt>
</event>
<event>
 4    1  0.4263413E+000  0.1809673E+03  0.7546771E-02  0.1166870E+00
         21   -1    0    0  501  502  0.00000000000E+00  0.00000000000E+00  0.70615776883E+02  0.70615776883E+02  0.00000000000E+00 0. -1.
         21   -1    0    0  502  503 -0.00000000000E+00 -0.00000000000E+00 -0.47117408341E+03  0.47117408341E+03  0.00000000000E+00 0. -1.
          6    1    1    2  501    0 -0.34016047381E+02 -0.40780825196E+02 -0.16631074226E+03  0.24578126490E+03  0.17300000000E+03 0. -1.
         -6    1    1    2    0  503  0.34016047381E+02  0.40780825196E+02 -0.23424756426E+03  0.29600859539E+03  0.17300000000E+03 0. -1.
<mgrwt>
<rscale>  2 0.18096731E+03</rscale>
<asrwt>0</asrwt>
<pdfrwt beam="1">  1       21 0.10863966E-01 0.18096731E+03</pdfrwt>
<pdfrwt beam="2">  1       21 0.72488316E-01 0.18096731E+03</pdfrwt>
<totfact> 0.12068662E+05</totfact>
</mgrwt>
</event>
<event>
 4    1  0.4263413E+000  0.2028641E+03  0.7546771E-02  0.1147345E+00
         21   -1    0    0  501  502  0.00000000000E+00  0.00000000000E+00  0.16211749108E+03  0.16211749108E+03  0.00000000000E+00 0.  1.
         21   -1    0    0  502  503 -0.00000000000E+00 -0.00000000000E+00 -0.38510632968E+03  0.38510632968E+03  0.00000000000E+00 0.  1.
          6    1    1    2  501    0  0.10581894001E+03 -0.52129889392E+01  0.48241194447E+02  0.20852106886E+03  0.17300000000E+03 0.  1.
         -6    1    1    2    0  503 -0.10581894001E+03  0.52129889392E+01 -0.27123003305E+03  0.33870275190E+03  0.17300000000E+03 0.  1.
<mgrwt>
<rscale>  2 0.20286405E+03</rscale>
<asrwt>0</asrwt>
<pdfrwt beam="1">  1       21 0.24941152E-01 0.20286405E+03</pdfrwt>
<pdfrwt beam="2">  1       21 0.59247128E-01 0.20286405E+03</pdfrwt>
<totfact> 0.40294337E+04</totfact>
</mgrwt>
</event>
<event>
 4    1  0.4263413E+000  0.1827870E+03  0.7546771E-02  0.1165133E+00
         21   -1    0    0  501  502  0.00000000000E+00  0.00000000000E+00  0.74303400374E+03  0.74303400374E+03  0.00000000000E+00 0.  1.
         21   -1    0    0  502  503 -0.00000000000E+00 -0.00000000000E+00 -0.16443855873E+03  0.16443855873E+03  0.00000000000E+00 0.  1.
          6    1    1    2  501    0  0.82294757145E+01 -0.58432689611E+02  0.67605292021E+03  0.70032753367E+03  0.17300000000E+03 0.  1.
         -6    1    1    2    0  503 -0.82294757145E+01  0.58432689611E+02 -0.97457475202E+02  0.20714502880E+03  0.17300000000E+03 0.  1.
<mgrwt>
<rscale>  2 0.18278704E+03</rscale>
<asrwt>0</asrwt>
<pdfrwt beam="1">  1       21 0.11431292E+00 0.18278704E+03</pdfrwt>
<pdfrwt beam="2">  1       21 0.25298240E-01 0.18278704E+03</pdfrwt>
<totfact> 0.88729434E+03</totfact>
</mgrwt>
</event>
<event>
 4    1  0.4263413E+000  0.2040804E+03  0.7546771E-02  0.1146341E+00
         21   -1    0    0  503  502  0.00000000000E+00  0.00000000000E+00  0.64671988142E+02  0.64671988142E+02  0.00000000000E+00 0. -1.
         21   -1    0    0  501  503 -0.00000000000E+00 -0.00000000000E+00 -0.64428680780E+03  0.64428680780E+03  0.00000000000E+00 0. -1.
          6    1    1    2  501    0  0.13405415365E+02  0.10742495792E+03 -0.29727307189E+03  0.36058300850E+03  0.17300000000E+03 0. -1.
         -6    1    1    2    0  502 -0.13405415365E+02 -0.10742495792E+03 -0.28234174777E+03  0.34837578744E+03  0.17300000000E+03 0. -1.
<mgrwt>
<rscale>  2 0.20408044E+03</rscale>
<asrwt>0</asrwt>
<pdfrwt beam="1">  1       21 0.99495367E-02 0.20408044E+03</pdfrwt>
<pdfrwt beam="2">  1       21 0.99121047E-01 0.20408044E+03</pdfrwt>
<totfact> 0.68261791E+04</totfact>
</mgrwt>
</event>
<event>
 4    1  0.4263413E+000  0.1908429E+03  0.7546771E-02  0.1157703E+00
         21   -1    0    0  501  502  0.00000000000E+00  0.00000000000E+00  0.10867184294E+04  0.10867184294E+04  0.00000000000E+00 0.  1.
         21   -1    0    0  502  503 -0.00000000000E+00 -0.00000000000E+00 -0.50054774689E+02  0.50054774689E+02  0.00000000000E+00 0.  1.
          6    1    1    2  501    0  0.53617774238E+02 -0.60142789619E+02  0.19160103410E+03  0.27042924606E+03  0.17300000000E+03 0.  1.
         -6    1    1    2    0  503 -0.53617774238E+02  0.60142789619E+02  0.84506262063E+03  0.86634395805E+03  0.17300000000E+03 0.  1.
<mgrwt>
<rscale>  2 0.19084292E+03</rscale>
<asrwt>0</asrwt>
<pdfrwt beam="1">  1       21 0.16718743E+00 0.19084292E+03</pdfrwt>
<pdfrwt beam="2">  1       21 0.77007354E-02 0.19084292E+03</pdfrwt>
<totfact> 0.28677070E+04</totfact>
</mgrwt>
</event>
<event>
 4    1  0.4263413E+000  0.1733023E+03  0.7546771E-02  0.1174447E+00
         21   -1    0    0  501  502  0.00000000000E+00  0.00000000000E+00  0.19082972138E+03  0.19082972138E+03  0.00000000000E+00 0. -1.
         21   -1    0    0  502  503 -0.00000000000E+00 -0.00000000000E+00 -0.18751673556E+03  0.18751673556E+03  0.00000000000E+00 0. -1.
          6    1    1    2  501    0 -0.98211709677E+01  0.28705917815E+01  0.77488620871E+02  0.18983725151E+03  0.17300000000E+03 0. -1.
         -6    1    1    2    0  503  0.98211709677E+01 -0.28705917815E+01 -0.74175635055E+02  0.18850920543E+03  0.17300000000E+03 0. -1.
<mgrwt>
<rscale>  2 0.17330232E+03</rscale>
<asrwt>0</asrwt>
<pdfrwt beam="1">  1       21 0.29358419E-01 0.17330232E+03</pdfrwt>
<pdfrwt beam="2">  1       21 0.28848729E-01 0.17330232E+03</pdfrwt>
<totfact> 0.12865751E+05</totfact>
</mgrwt>
</event>
<event>
 4    1  0.4263413E+000  0.2189672E+03  0.7546771E-02  0.1134655E+00
         21   -1    0    0  503  502  0.00000000000E+00  0.00000000000E+00  0.40893641609E+02  0.40893641609E+02  0.00000000000E+00 0.  1.
         21   -1    0    0  501  503 -0.00000000000E+00 -0.00000000000E+00 -0.11736201093E+04  0.11736201093E+04  0.00000000000E+00 0.  1.
          6    1    1    2  501    0 -0.12852943671E+03  0.38701699552E+02 -0.58535897861E+03  0.62497341662E+03  0.17300000000E+03 0.  1.
         -6    1    1    2    0  502  0.12852943671E+03 -0.38701699552E+02 -0.54736748913E+03  0.58954033433E+03  0.17300000000E+03 0.  1.
<mgrwt>
<rscale>  2 0.21896721E+03</rscale>
<asrwt>0</asrwt>
<pdfrwt beam="1">  1       21 0.62913306E-02 0.21896721E+03</pdfrwt>
<pdfrwt beam="2">  1       21 0.18055691E+00 0.21896721E+03</pdfrwt>
<totfact> 0.32236318E+04</totfact>
</mgrwt>
</event>
<event>
 4    1  0.4263413E+000  0.1955012E+03  0.7546771E-02  0.1153591E+00
         21   -1    0    0  503  502  0.00000000000E+00  0.00000000000E+00  0.11104025358E+03  0.11104025358E+03  0.00000000000E+00 0.  1.
         21   -1    0    0  501  503 -0.00000000000E+00 -0.00000000000E+00 -0.46929440617E+03  0.46929440617E+03  0.00000000000E+00 0.  1.
          6    1    1    2  501    0  0.71322628862E+02  0.56610804478E+02 -0.32893496438E+03  0.38264724142E+03  0.17300000000E+03 0.  1.
         -6    1    1    2    0  502 -0.71322628862E+02 -0.56610804478E+02 -0.29319188213E+02  0.19768741834E+03  0.17300000000E+03 0.  1.
<mgrwt>
<rscale>  2 0.19550115E+03</rscale>
<asrwt>0</asrwt>
<pdfrwt beam="1">  1       21 0.17083116E-01 0.19550115E+03</pdfrwt>
<pdfrwt beam="2">  1       21 0.72199138E-01 0.19550115E+03</pdfrwt>
<totfact> 0.53429229E+04</totfact>
</mgrwt>
</event>
<event>
 4    1  0.4263413E+000  0.2015909E+03  0.7546771E-02  0.1148404E+00
         21   -1    0    0  503  502  0.00000000000E+00  0.00000000000E+00  0.18172838081E+03  0.18172838081E+03  0.00000000000E+00 0. -1.
         21   -1    0    0  501  503 -0.00000000000E+00 -0.00000000000E+00 -0.25099233254E+03  0.25099233254E+03  0.00000000000E+00 0. -1.
          6    1    1    2  501    0  0.12793061269E+02 -0.10269492513E+03  0.36812396070E+02  0.20492452896E+03  0.17300000000E+03 0. -1.
         -6    1    1    2    0  502 -0.12793061269E+02  0.10269492513E+03 -0.10607634779E+03  0.22779618440E+03  0.17300000000E+03 0. -1.
<mgrwt>
<rscale>  2 0.20159095E+03</rscale>
<asrwt>0</asrwt>
<pdfrwt beam="1">  1       21 0.27958213E-01 0.20159095E+03</pdfrwt>
<pdfrwt beam="2">  1       21 0.38614205E-01 0.20159095E+03</pdfrwt>
<totfact> 0.78714606E+04</totfact>
</mgrwt>
</event>
<event>
 4    1  0.4263413E+000  0.1754258E+03  0.7546771E-02  0.1172305E+00
         21   -1    0    0  503  502  0.00000000000E+00  0.00000000000E+00  0.63044390277E+03  0.63044390277E+03  0.00000000000E+00 0. -1.
         21   -1    0    0  501  503 -0.00000000000E+00 -0.00000000000E+00 -0.55179918548E+02  0.55179918548E+02  0.00000000000E+00 0. -1.
          6    1    1    2  501    0  0.19116829524E+02  0.21903514890E+02  0.17118973772E+03  0.24511251179E+03  0.17300000000E+03 0. -1.
         -6    1    1    2    0  502 -0.19116829524E+02 -0.21903514890E+02  0.40407424651E+03  0.44051130953E+03  0.17300000000E+03 0. -1.
<mgrwt>
<rscale>  2 0.17542582E+03</rscale>
<asrwt>0</asrwt>
<pdfrwt beam="1">  1       21 0.96991364E-01 0.17542582E+03</pdfrwt>
<pdfrwt beam="2">  1       21 0.84892187E-02 0.17542582E+03</pdfrwt>
<totfact> 0.96158514E+04</totfact>
</mgrwt>
</event>
<event>
 4    1  0.4263413E+000  0.1799349E+03  0.7546771E-02  0.1167866E+00
         21   -1    0    0  501  502  0.00000000000E+00  0.00000000000E+00  0.29459017104E+03  0.29459017104E+03  0.00000000000E+00 0.  1.
         21   -1    0    0  502  503 -0.00000000000E+00 -0.00000000000E+00 -0.27694163419E+03  0.27694163419E+03  0.00000000000E+00 0.  1.
          6    1    1    2  501    0  0.35798502579E+02 -0.34147364710E+02  0.23075820934E+03  0.29261908086E+03  0.17300000000E+03 0.  1.
         -6    1    1    2    0  503 -0.35798502579E+02  0.34147364710E+02 -0.21310967250E+03  0.27891272437E+03  0.17300000000E+03 0.  1.
<mgrwt>
<rscale>  2 0.17993492E+03</rscale>
<asrwt>0</asrwt>
<pdfrwt beam="1">  1       21 0.45321565E-01 0.17993492E+03</pdfrwt>
<pdfrwt beam="2">  1       21 0.42606405E-01 0.17993492E+03</pdfrwt>
<totfact> 0.24925388E+04</totfact>
</mgrwt>
</event>
<event>
 4    1  0.4263413E+000  0.2235726E+03  0.7546771E-02  0.1131247E+00
         21   -1    0    0  501  502  0.00000000000E+00  0.00000000000E+00  0.14322382859E+03  0.14322382859E+03  0.00000000000E+00 0.  1.
         21   -1    0    0  502  503 -0.00000000000E+00 -0.00000000000E+00 -0.96452006386E+03  0.96452006386E+03  0.00000000000E+00 0.  1.
          6    1    1    2  501    0 -0.13378886719E+03  0.46435541151E+02  0.31813718420E+02  0.22582478417E+03  0.17300000000E+03 0.  1.
         -6    1    1    2    0  503  0.13378886719E+03 -0.46435541151E+02 -0.85310995369E+03  0.88191910828E+03  0.17300000000E+03 0.  1.
<mgrwt>
<rscale>  2 0.22357263E+03</rscale>
<asrwt>0</asrwt>
<pdfrwt beam="1">  1       21 0.22034436E-01 0.22357263E+03</pdfrwt>
<pdfrwt beam="2">  1       21 0.14838770E+00 0.22357263E+03</pdfrwt>
<totfact> 0.57763704E+03</totfact>
</mgrwt>
</event>
<event>
 4    1  0.4263413E+000  0.1829126E+03  0.7546771E-02  0.1165014E+00
         21   -1    0    0  503  502  0.00000000000E+00  0.00000000000E+00  0.16128258426E+03  0.16128258426E+03  0.00000000000E+00 0.  1.
         21   -1    0    0  501  503 -0.00000000000E+00 -0.00000000000E+00 -0.37064212719E+03  0.37064212719E+03  0.00000000000E+00 0.  1.
          6    1    1    2  501    0 -0.42406857478E+02 -0.41589180704E+02 -0.28116209597E+03  0.33542380017E+03  0.17300000000E+03 0. -1.
         -6    1    1    2    0  502  0.42406857478E+02  0.41589180704E+02  0.71802553035E+02  0.19650091128E+03  0.17300000000E+03 0. -1.
<mgrwt>
<rscale>  2 0.18291255E+03</rscale>
<asrwt>0</asrwt>
<pdfrwt beam="1">  1       21 0.24812705E-01 0.18291255E+03</pdfrwt>
<pdfrwt beam="2">  1       21 0.57021866E-01 0.18291255E+03</pdfrwt>
<totfact> 0.44605126E+04</totfact>
</mgrwt>
</event>
<event>
 4    1  0.4263413E+000  0.2116981E+03  0.7546771E-02  0.1140228E+00
         21   -1    0    0  503  502  0.00000000000E+00  0.00000000000E+00  0.44362348442E+02  0.44362348442E+02  0.00000000000E+00 0. -1.
         21   -1    0    0  501  503 -0.00000000000E+00 -0.00000000000E+00 -0.11423631732E+04  0.11423631732E+04  0.00000000000E+00 0. -1.
          6    1    1    2  501    0  0.73985962406E+02  0.97021351448E+02 -0.75080368129E+03  0.78007835062E+03  0.17300000000E+03 0. -1.
         -6    1    1    2    0  502 -0.73985962406E+02 -0.97021351448E+02 -0.34719714350E+03  0.40664717105E+03  0.17300000000E+03 0. -1.
<mgrwt>
<rscale>  2 0.21169805E+03</rscale>
<asrwt>0</asrwt>
<pdfrwt beam="1">  1       21 0.68249769E-02 0.21169805E+03</pdfrwt>
<pdfrwt beam="2">  1       21 0.17574818E+00 0.21169805E+03</pdfrwt>
<totfact> 0.30368514E+04</totfact>
</mgrwt>
</event>
<event>
 4    1  0.4263413E+000  0.2124892E+03  0.7546771E-02  0.1139610E+00
         21   -1    0    0  503  502  0.00000000000E+00  0.00000000000E+00  0.17200623701E+03  0.17200623701E+03  0.00000000000E+00 0.  1.
         21   -1    0    0  501  503 -0.00000000000E+00 -0.00000000000E+00 -0.49093229877E+03  0.49093229877E+03  0.00000000000E+00 0. -1.
          6    1    1    2  501    0  0.98818507873E+02  0.73875453191E+02 -0.38556845686E+03  0.44024392672E+03  0.17300000000E+03 0. -1.
         -6    1    1    2    0  502 -0.98818507873E+02 -0.73875453191E+02  0.66642395098E+02  0.22269460907E+03  0.17300000000E+03 0.  1.
<mgrwt>
<rscale>  2 0.21248925E+03</rscale>
<asrwt>0</asrwt>
<pdfrwt beam="1">  1       21 0.26462498E-01 0.21248925E+03</pdfrwt>
<pdfrwt beam="2">  1       21 0.75528045E-01 0.21248925E+03</pdfrwt>
<totfact> 0.21014156E+04</totfact>
</mgrwt>
</event>
<event>
 4    1  0.4263413E+000  0.2094574E+03  0.7546771E-02  0.1141996E+00
         21   -1    0    0  503  502  0.00000000000E+00  0.00000000000E+00  0.37416964598E+03  0.37416964598E+03  0.00000000000E+00 0. -1.
         21   -1    0    0  501  503 -0.00000000000E+00 -0.00000000000E+00 -0.11871146183E+03  0.11871146183E+03  0.00000000000E+00 0. -1.
          6    1    1    2  501    0  0.41108678657E+02 -0.11069549128E+03  0.10041086726E+03  0.23228163404E+03  0.17300000000E+03 0. -1.
         -6    1    1    2    0  502 -0.41108678657E+02  0.11069549128E+03  0.15504731689E+03  0.26059947376E+03  0.17300000000E+03 0. -1.
<mgrwt>
<rscale>  2 0.20945743E+03</rscale>
<asrwt>0</asrwt>
<pdfrwt beam="1">  1       21 0.57564560E-01 0.20945743E+03</pdfrwt>
<pdfrwt beam="2">  1       21 0.18263302E-01 0.20945743E+03</pdfrwt>
<totfact> 0.76823797E+04</totfact>
</mgrwt>
</event>
<event>
 4    1  0.4263413E+000  0.2018725E+03  0.7546771E-02  0.1148169E+00
         21   -1    0    0  501  502  0.00000000000E+00  0.00000000000E+00  0.18108689299E+04  0.18108689299E+04  0.00000000000E+00 0.  1.
         21   -1    0    0  502  503 -0.00000000000E+00 -0.00000000000E+00 -0.59152650299E+02  0.59152650299E+02  0.00000000000E+00 0. -1.
          6    1    1    2  501    0 -0.98981262783E+02 -0.32034375402E+02  0.16118215620E+04  0.16244141218E+04  0.17300000000E+03 0.  1.
         -6    1    1    2    0  503  0.98981262783E+02  0.32034375402E+02  0.13989471766E+03  0.24560745840E+03  0.17300000000E+03 0. -1.
<mgrwt>
<rscale>  2 0.20187246E+03</rscale>
<asrwt>0</asrwt>
<pdfrwt beam="1">  1       21 0.27859518E+00 0.20187246E+03</pdfrwt>
<pdfrwt beam="2">  1       21 0.91004091E-02 0.20187246E+03</pdfrwt>
<totfact> 0.42994291E+03</totfact>
</mgrwt>
</event>
<event>
 4    1  0.4263413E+000  0.2300477E+03  0.7546771E-02  0.1126606E+00
         21   -1    0    0  501  502  0.00000000000E+00  0.00000000000E+00  0.25568226443E+03  0.25568226443E+03  0.00000000000E+00 0.  1.
         21   -1    0    0  502  503 -0.00000000000E+00 -0.00000000000E+00 -0.25314628524E+03  0.25314628524E+03  0.00000000000E+00 0.  1.
          6    1    1    2  501    0 -0.11072259567E+03  0.10360233397E+03 -0.10737533437E+03  0.25387280127E+03  0.17300000000E+03 0.  1.
         -6    1    1    2    0  503  0.11072259567E+03 -0.10360233397E+03  0.10991131356E+03  0.25495574840E+03  0.17300000000E+03 0.  1.
<mgrwt>
<rscale>  2 0.23004768E+03</rscale>
<asrwt>0</asrwt>
<pdfrwt beam="1">  1       21 0.39335733E-01 0.23004768E+03</pdfrwt>
<pdfrwt beam="2">  1       21 0.38945582E-01 0.23004768E+03</pdfrwt>
<totfact> 0.38884794E+04</totfact>
</mgrwt>
</event>
<event>
 4    1  0.4263413E+000  0.2404256E+03  0.7546771E-02  0.1119510E+00
         21   -1    0    0  503  502  0.00000000000E+00  0.00000000000E+00  0.43990280976E+03  0.43990280976E+03  0.00000000000E+00 0. -1.
         21   -1    0    0  501  503 -0.00000000000E+00 -0.00000000000E+00 -0.22868070731E+03  0.22868070731E+03  0.00000000000E+00 0. -1.
          6    1    1    2  501    0 -0.16428096831E+03 -0.29786742343E+02 -0.11241976768E+03  0.26541041941E+03  0.17300000000E+03 0. -1.
         -6    1    1    2    0  502  0.16428096831E+03  0.29786742343E+02  0.32364187013E+03  0.40317309765E+03  0.17300000000E+03 0. -1.
<mgrwt>
<rscale>  2 0.24042564E+03</rscale>
<asrwt>0</asrwt>
<pdfrwt beam="1">  1       21 0.67677355E-01 0.24042564E+03</pdfrwt>
<pdfrwt beam="2">  1       21 0.35181647E-01 0.24042564E+03</pdfrwt>
<totfact> 0.15110434E+04</totfact>
</mgrwt>
</event>
<event>
 4    1  0.4263413E+000  0.2302304E+03  0.7546771E-02  0.1126478E+00
         21   -1    0    0  501  502  0.00000000000E+00  0.00000000000E+00  0.22434203885E+02  0.22434203885E+02  0.00000000000E+00 0. -1.
         21   -1    0    0  502  503 -0.00000000000E+00 -0.00000000000E+00 -0.25539316354E+04  0.25539316354E+04  0.00000000000E+00 0.  1.
          6    1    1    2  501    0  0.13629948861E+03  0.67078336791E+02 -0.91328510692E+03  0.94185760091E+03  0.17300000000E+03 0.  1.
         -6    1    1    2    0  503 -0.13629948861E+03 -0.67078336791E+02 -0.16182123246E+04  0.16345082384E+04  0.17300000000E+03 0. -1.
<mgrwt>
<rscale>  2 0.23023044E+03</rscale>
<asrwt>0</asrwt>
<pdfrwt beam="1">  1       21 0.34514180E-02 0.23023044E+03</pdfrwt>
<pdfrwt beam="2">  1       21 0.39291233E+00 0.23023044E+03</pdfrwt>
<totfact> 0.46099336E+03</totfact>
</mgrwt>
</event>
<event>
 4    1  0.4263413E+000  0.3425695E+03  0.7546771E-02  0.1065707E+00
         21   -1    0    0  501  502  0.00000000000E+00  0.00000000000E+00  0.18448743950E+03  0.18448743950E+03  0.00000000000E+00 0. -1.
         21   -1    0    0  502  503 -0.00000000000E+00 -0.00000000000E+00 -0.71670409064E+03  0.71670409064E+03  0.00000000000E+00 0. -1.
          6    1    1    2  501    0 -0.13145322889E+03 -0.26484886180E+03 -0.11500462365E+03  0.36135845700E+03  0.17300000000E+03 0. -1.
         -6    1    1    2    0  503  0.13145322889E+03  0.26484886180E+03 -0.41721202748E+03  0.53983307314E+03  0.17300000000E+03 0. -1.
<mgrwt>
<rscale>  2 0.34256951E+03</rscale>
<asrwt>0</asrwt>
<pdfrwt beam="1">  1       21 0.28382683E-01 0.34256951E+03</pdfrwt>
<pdfrwt beam="2">  1       21 0.11026217E+00 0.34256951E+03</pdfrwt>
<totfact> 0.70747483E+03</totfact>
</mgrwt>
</event>
<event>
 4    1  0.4263413E+000  0.1795406E+03  0.7546771E-02  0.1168248E+00
         21   -1    0    0  501  502  0.00000000000E+00  0.00000000000E+00  0.17802944867E+03  0.17802944867E+03  0.00000000000E+00 0.  1.
         21   -1    0    0  502  503 -0.00000000000E+00 -0.00000000000E+00 -0.40609572866E+03  0.40609572866E+03  0.00000000000E+00 0.  1.
          6    1    1    2  501    0 -0.47342989168E+02 -0.80294882654E+01  0.10337861236E+03  0.20717617816E+03  0.17300000000E+03 0.  1.
         -6    1    1    2    0  503  0.47342989168E+02  0.80294882654E+01 -0.33144489235E+03  0.37694899916E+03  0.17300000000E+03 0.  1.
<mgrwt>
<rscale>  2 0.17954061E+03</rscale>
<asrwt>0</asrwt>
<pdfrwt beam="1">  1       21 0.27389146E-01 0.17954061E+03</pdfrwt>
<pdfrwt beam="2">  1       21 0.62476266E-01 0.17954061E+03</pdfrwt>
<totfact> 0.30410489E+04</totfact>
</mgrwt>
</event>
<event>
 4    1  0.4263413E+000  0.1941585E+03  0.7546771E-02  0.1154763E+00
         21   -1    0    0  503  502  0.00000000000E+00  0.00000000000E+00  0.34908682513E+03  0.34908682513E+03  0.00000000000E+00 0.  1.
         21   -1    0    0  501  503 -0.00000000000E+00 -0.00000000000E+00 -0.17004970799E+04  0.17004970799E+04  0.00000000000E+00 0.  1.
          6    1    1    2  501    0 -0.57833109692E+02 -0.66511938557E+02 -0.16674240394E+04  0.16786900946E+04  0.17300000000E+03 0.  1.
         -6    1    1    2    0  502  0.57833109692E+02  0.66511938557E+02  0.31601378462E+03  0.37089381043E+03  0.17300000000E+03 0.  1.
<mgrwt>
<rscale>  2 0.19415846E+03</rscale>
<asrwt>0</asrwt>
<pdfrwt beam="1">  1       21 0.53705667E-01 0.19415846E+03</pdfrwt>
<pdfrwt beam="2">  1       21 0.26161493E+00 0.19415846E+03</pdfrwt>
<totfact> 0.18610370E+02</totfact>
</mgrwt>
</event>
<event>
 4    1  0.4263413E+000  0.2503729E+03  0.7546771E-02  0.1113069E+00
         21   -1    0    0  501  502  0.00000000000E+00  0.00000000000E+00  0.11587171956E+04  0.11587171956E+04  0.00000000000E+00 0. -1.
         21   -1    0    0  502  503 -0.00000000000E+00 -0.00000000000E+00 -0.11511943133E+03  0.11511943133E+03  0.00000000000E+00 0.  1.
          6    1    1    2  501    0  0.18094167021E+03 -0.42101333537E+01  0.98550567374E+03  0.10168126898E+04  0.17300000000E+03 0. -1.
         -6    1    1    2    0  503 -0.18094167021E+03  0.42101333537E+01  0.58092090490E+02  0.25702393705E+03  0.17300000000E+03 0.  1.
<mgrwt>
<rscale>  2 0.25037295E+03</rscale>
<asrwt>0</asrwt>
<pdfrwt beam="1">  1       21 0.17826418E+00 0.25037295E+03</pdfrwt>
<pdfrwt beam="2">  1       21 0.17710683E-01 0.25037295E+03</pdfrwt>
<totfact> 0.51682846E+03</totfact>
</mgrwt>
</event>
<event>
 4    1  0.4263413E+000  0.1831230E+03  0.7546771E-02  0.1164814E+00
         21   -1    0    0  503  502  0.00000000000E+00  0.00000000000E+00  0.91702032049E+03  0.91702032049E+03  0.00000000000E+00 0.  1.
         21   -1    0    0  501  503 -0.00000000000E+00 -0.00000000000E+00 -0.44817429876E+02  0.44817429876E+02  0.00000000000E+00 0.  1.
          6    1    1    2  501    0  0.36773384170E+02  0.47463255215E+02  0.64242442032E+03  0.66801435478E+03  0.17300000000E+03 0.  1.
         -6    1    1    2    0  502 -0.36773384170E+02 -0.47463255215E+02  0.22977847030E+03  0.29382339558E+03  0.17300000000E+03 0.  1.
<mgrwt>
<rscale>  2 0.18312303E+03</rscale>
<asrwt>0</asrwt>
<pdfrwt beam="1">  1       21 0.14108004E+00 0.18312303E+03</pdfrwt>
<pdfrwt beam="2">  1       21 0.68949899E-02 0.18312303E+03</pdfrwt>
<totfact> 0.54742734E+04</totfact>
</mgrwt>
</event>
<event>
 4    1  0.4263413E+000  0.1767102E+03  0.7546771E-02  0.1171025E+00
         21   -1    0    0  503  502  0.00000000000E+00  0.00000000000E+00  0.32358196406E+03  0.32358196406E+03  0.00000000000E+00 0.  1.
         21   -1    0    0  501  503 -0.00000000000E+00 -0.00000000000E+00 -0.16505141463E+03  0.16505141463E+03  0.00000000000E+00 0.  1.
          6    1    1    2  501    0 -0.16534687195E+02 -0.32001723937E+02 -0.78185003116E+02  0.19323405737E+03  0.17300000000E+03 0.  1.
         -6    1    1    2    0  502  0.16534687195E+02  0.32001723937E+02  0.23671555255E+03  0.29539932131E+03  0.17300000000E+03 0.  1.
<mgrwt>
<rscale>  2 0.17671023E+03</rscale>
<asrwt>0</asrwt>
<pdfrwt beam="1">  1       21 0.49781841E-01 0.17671023E+03</pdfrwt>
<pdfrwt beam="2">  1       21 0.25392525E-01 0.17671023E+03</pdfrwt>
<totfact> 0.56949136E+04</totfact>
</mgrwt>
</event>
<event>
 4    1  0.4263413E+000  0.2050576E+03  0.7546771E-02  0.1145541E+00
         21   -1    0    0  503  502  0.00000000000E+00  0.00000000000E+00  0.53136788474E+02  0.53136788474E+02  0.00000000000E+00 0. -1.
         21   -1    0    0  501  503 -0.00000000000E+00 -0.00000000000E+00 -0.79176963805E+03  0.79176963805E+03  0.00000000000E+00 0. -1.
          6    1    1    2  501    0  0.72706840544E+02  0.82664080846E+02 -0.35934049360E+03  0.41373206942E+03  0.17300000000E+03 0. -1.
         -6    1    1    2    0  502 -0.72706840544E+02 -0.82664080846E+02 -0.37929235597E+03  0.43117435710E+03  0.17300000000E+03 0. -1.
<mgrwt>
<rscale>  2 0.20505764E+03</rscale>
<asrwt>0</asrwt>
<pdfrwt beam="1">  1       21 0.81748908E-02 0.20505764E+03</pdfrwt>
<pdfrwt beam="2">  1       21 0.12181071E+00 0.20505764E+03</pdfrwt>
<totfact> 0.58427031E+04</totfact>
</mgrwt>
</event>
<event>
 4    1  0.4263413E+000  0.1750594E+03  0.7546771E-02  0.1172672E+00
         21   -1    0    0  501  502  0.00000000000E+00  0.00000000000E+00  0.11059299139E+03  0.11059299139E+03  0.00000000000E+00 0.  1.
         21   -1    0    0  502  503 -0.00000000000E+00 -0.00000000000E+00 -0.83094029931E+03  0.83094029931E+03  0.00000000000E+00 0.  1.
          6    1    1    2  501    0  0.10919721690E+02  0.24444834111E+02  0.24162620344E+02  0.17671904951E+03  0.17300000000E+03 0.  1.
         -6    1    1    2    0  503 -0.10919721690E+02 -0.24444834111E+02 -0.74450992827E+03  0.76481424119E+03  0.17300000000E+03 0.  1.
<mgrwt>
<rscale>  2 0.17505939E+03</rscale>
<asrwt>0</asrwt>
<pdfrwt beam="1">  1       21 0.17014307E-01 0.17505939E+03</pdfrwt>
<pdfrwt beam="2">  1       21 0.12783697E+00 0.17505939E+03</pdfrwt>
<totfact> 0.14219275E+04</totfact>
</mgrwt>
</event>
<event>
 4    1  0.4263413E+000  0.1746111E+03  0.7546771E-02  0.1173123E+00
         21   -1    0    0  503  502  0.00000000000E+00  0.00000000000E+00  0.96638832358E+02  0.96638832358E+02  0.00000000000E+00 0.  1.
         21   -1    0    0  501  503 -0.00000000000E+00 -0.00000000000E+00 -0.31785970172E+03  0.31785970172E+03  0.00000000000E+00 0. -1.
          6    1    1    2  501    0 -0.71744177952E+00 -0.23654518289E+02 -0.92734035723E+02  0.19770850346E+03  0.17300000000E+03 0. -1.
         -6    1    1    2    0  502  0.71744177952E+00  0.23654518289E+02 -0.12848683364E+03  0.21679003062E+03  0.17300000000E+03 0. -1.
<mgrwt>
<rscale>  2 0.17461114E+03</rscale>
<asrwt>0</asrwt>
<pdfrwt beam="1">  1       21 0.14867513E-01 0.17461114E+03</pdfrwt>
<pdfrwt beam="2">  1       21 0.48901492E-01 0.17461114E+03</pdfrwt>
<totfact> 0.16002107E+05</totfact>
</mgrwt>
</event>
<event>
 4    1  0.4263413E+000  0.1734088E+03  0.7546771E-02  0.1174339E+00
         21   -1    0    0  501  502  0.00000000000E+00  0.00000000000E+00  0.23205339823E+02  0.23205339823E+02  0.00000000000E+00 0.  1.
         21   -1    0    0  502  503 -0.00000000000E+00 -0.00000000000E+00 -0.20020925754E+04  0.20020925754E+04  0.00000000000E+00 0.  1.
          6    1    1    2  501    0 -0.11103661043E+01 -0.11848881666E+02 -0.38800136953E+03  0.42498904888E+03  0.17300000000E+03 0.  1.
         -6    1    1    2    0  503  0.11103661043E+01  0.11848881666E+02 -0.15908858660E+04  0.16003088663E+04  0.17300000000E+03 0.  1.
<mgrwt>
<rscale>  2 0.17340885E+03</rscale>
<asrwt>0</asrwt>
<pdfrwt beam="1">  1       21 0.35700523E-02 0.17340885E+03</pdfrwt>
<pdfrwt beam="2">  1       21 0.30801424E+00 0.17340885E+03</pdfrwt>
<totfact> 0.14857749E+04</totfact>
</mgrwt>
</event>
<event>
 4    1  0.4263413E+000  0.1907104E+03  0.7546771E-02  0.1157822E+00
         21   -1    0    0  503  502  0.00000000000E+00  0.00000000000E+00  0.12454721305E+03  0.12454721305E+03  0.00000000000E+00 0.  1.
         21   -1    0    0  501  503 -0.00000000000E+00 -0.00000000000E+00 -0.97303252520E+03  0.97303252520E+03  0.00000000000E+00 0.  1.
          6    1    1    2  501    0  0.61248902937E+01 -0.80024560978E+02 -0.88335559007E+03  0.90370766465E+03  0.17300000000E+03 0.  1.
         -6    1    1    2    0  502 -0.61248902937E+01  0.80024560978E+02  0.34870277923E+02  0.19387207360E+03  0.17300000000E+03 0.  1.
<mgrwt>
<rscale>  2 0.19071037E+03</rscale>
<asrwt>0</asrwt>
<pdfrwt beam="1">  1       21 0.19161110E-01 0.19071037E+03</pdfrwt>
<pdfrwt beam="2">  1       21 0.14969731E+00 0.19071037E+03</pdfrwt>
<totfact> 0.75249106E+03</totfact>
</mgrwt>
</event>
<event>
 4    1  0.4263413E+000  0.1837446E+03  0.7546771E-02  0.1164227E+00
         21   -1    0    0  503  502  0.00000000000E+00  0.00000000000E+00  0.17637666092E+03  0.17637666092E+03  0.00000000000E+00 0.  1.
         21   -1    0    0  501  503 -0.00000000000E+00 -0.00000000000E+00 -0.30459469223E+03  0.30459469223E+03  0.00000000000E+00 0. -1.
          6    1    1    2  501    0 -0.28664279597E+02  0.54876661183E+02 -0.21069821263E+03  0.27956363439E+03  0.17300000000E+03 0.  1.
         -6    1    1    2    0  502  0.28664279597E+02 -0.54876661183E+02  0.82480181322E+02  0.20140771877E+03  0.17300000000E+03 0.  1.
<mgrwt>
<rscale>  2 0.18374463E+03</rscale>
<asrwt>0</asrwt>
<pdfrwt beam="1">  1       21 0.27134871E-01 0.18374463E+03</pdfrwt>
<pdfrwt beam="2">  1       21 0.46860722E-01 0.18374463E+03</pdfrwt>
<totfact> 0.56655959E+04</totfact>
</mgrwt>
</event>
<event>
 4    1  0.4263413E+000  0.3195630E+03  0.7546771E-02  0.1075851E+00
         21   -1    0    0  501  502  0.00000000000E+00  0.00000000000E+00  0.53162606891E+03  0.53162606891E+03  0.00000000000E+00 0.  1.
         21   -1    0    0  502  503 -0.00000000000E+00 -0.00000000000E+00 -0.22362834109E+03  0.22362834109E+03  0.00000000000E+00 0. -1.
          6    1    1    2  501    0  0.21830591178E+03  0.15663346627E+03  0.29581096403E+03  0.43545911441E+03  0.17300000000E+03 0. -1.
         -6    1    1    2    0  503 -0.21830591178E+03 -0.15663346627E+03  0.12186763782E+02  0.31979529560E+03  0.17300000000E+03 0. -1.
<mgrwt>
<rscale>  2 0.31956300E+03</rscale>
<asrwt>0</asrwt>
<pdfrwt beam="1">  1       21 0.81788625E-01 0.31956300E+03</pdfrwt>
<pdfrwt beam="2">  1       21 0.34404360E-01 0.31956300E+03</pdfrwt>
<totfact> 0.99357868E+03</totfact>
</mgrwt>
</event>
<event>
 4    1  0.4263413E+000  0.2423509E+03  0.7546771E-02  0.1118237E+00
         21   -1    0    0  503  502  0.00000000000E+00  0.00000000000E+00  0.41542879761E+03  0.41542879761E+03  0.00000000000E+00 0.  1.
         21   -1    0    0  501  503 -0.00000000000E+00 -0.00000000000E+00 -0.24790395640E+03  0.24790395640E+03  0.00000000000E+00 0.  1.
          6    1    1    2  501    0 -0.10793910854E+03  0.13097375339E+03 -0.13364790346E+03  0.27675934913E+03  0.17300000000E+03 0.  1.
         -6    1    1    2    0  502  0.10793910854E+03 -0.13097375339E+03  0.30117274466E+03  0.38657340488E+03  0.17300000000E+03 0.  1.
<mgrwt>
<rscale>  2 0.24235093E+03</rscale>
<asrwt>0</asrwt>
<pdfrwt beam="1">  1       21 0.63912123E-01 0.24235093E+03</pdfrwt>
<pdfrwt beam="2">  1       21 0.38139070E-01 0.24235093E+03</pdfrwt>
<totfact> 0.14555015E+04</totfact>
</mgrwt>
</event>
<event>
 4    1  0.4263413E+000  0.2013216E+03  0.7546771E-02  0.1148629E+00
         21   -1    0    0  501  502  0.00000000000E+00  0.00000000000E+00  0.55341313636E+02  0.55341313636E+02  0.00000000000E+00 0.  1.
         21   -1    0    0  502  503 -0.00000000000E+00 -0.00000000000E+00 -0.12417240911E+04  0.12417240911E+04  0.00000000000E+00 0.  1.
          6    1    1    2  501    0 -0.80794663580E+02 -0.63824844866E+02 -0.17782755222E+03  0.26861315458E+03  0.17300000000E+03 0.  1.
         -6    1    1    2    0  503  0.80794663580E+02  0.63824844866E+02 -0.10085552252E+04  0.10284522502E+04  0.17300000000E+03 0.  1.
<mgrwt>
<rscale>  2 0.20132160E+03</rscale>
<asrwt>0</asrwt>
<pdfrwt beam="1">  1       21 0.85140488E-02 0.20132160E+03</pdfrwt>
<pdfrwt beam="2">  1       21 0.19103446E+00 0.20132160E+03</pdfrwt>
<totfact> 0.16420198E+04</totfact>
</mgrwt>
</event>
<event>
 4    1  0.4263413E+000  0.2905497E+03  0.7546771E-02  0.1090063E+00
         21   -1    0    0  503  502  0.00000000000E+00  0.00000000000E+00  0.40369240737E+03  0.40369240737E+03  0.00000000000E+00 0. -1.
         21   -1    0    0  501  503 -0.00000000000E+00 -0.00000000000E+00 -0.21160807990E+03  0.21160807990E+03  0.00000000000E+00 0.  1.
          6    1    1    2  501    0 -0.96499996331E+02 -0.21255082358E+03  0.62664870037E+02  0.29723052978E+03  0.17300000000E+03 0.  1.
         -6    1    1    2    0  502  0.96499996331E+02  0.21255082358E+03  0.12941945743E+03  0.31806995749E+03  0.17300000000E+03 0. -1.
<mgrwt>
<rscale>  2 0.29054965E+03</rscale>
<asrwt>0</asrwt>
<pdfrwt beam="1">  1       21 0.62106524E-01 0.29054965E+03</pdfrwt>
<pdfrwt beam="2">  1       21 0.32555089E-01 0.29054965E+03</pdfrwt>
<totfact> 0.20800814E+04</totfact>
</mgrwt>
</event>
<event>
 4    1  0.4263413E+000  0.2529124E+03  0.7546771E-02  0.1111478E+00
         21   -1    0    0  501  502  0.00000000000E+00  0.00000000000E+00  0.15601499143E+03  0.15601499143E+03  0.00000000000E+00 0.  1.
         21   -1    0    0  502  503 -0.00000000000E+00 -0.00000000000E+00 -0.49322259431E+03  0.49322259431E+03  0.00000000000E+00 0.  1.
          6    1    1    2  501    0  0.59971892967E+02  0.17446788643E+03 -0.35252434730E+02  0.25535740737E+03  0.17300000000E+03 0.  1.
         -6    1    1    2    0  503 -0.59971892967E+02 -0.17446788643E+03 -0.30195516815E+03  0.39388017838E+03  0.17300000000E+03 0.  1.
<mgrwt>
<rscale>  2 0.25291238E+03</rscale>
<asrwt>0</asrwt>
<pdfrwt beam="1">  1       21 0.24002307E-01 0.25291238E+03</pdfrwt>
<pdfrwt beam="2">  1       21 0.75880399E-01 0.25291238E+03</pdfrwt>
<totfact> 0.24564604E+04</totfact>
</mgrwt>
</event>
<event>
 4    1  0.4263413E+000  0.1903312E+03  0.7546771E-02  0.1158163E+00
         21   -1    0    0  501  502  0.00000000000E+00  0.00000000000E+00  0.64444117524E+02  0.64444117524E+02  0.00000000000E+00 0.  1.
         21   -1    0    0  502  503 -0.00000000000E+00 -0.00000000000E+00 -0.68014896143E+03  0.68014896143E+03  0.00000000000E+00 0.  1.
          6    1    1    2  501    0 -0.86399383092E+01 -0.78881700067E+02 -0.15276988658E+03  0.24405861875E+03  0.17300000000E+03 0.  1.
         -6    1    1    2    0  503  0.86399383092E+01  0.78881700067E+02 -0.46293495732E+03  0.50053446020E+03  0.17300000000E+03 0.  1.
<mgrwt>
<rscale>  2 0.19033121E+03</rscale>
<asrwt>0</asrwt>
<pdfrwt beam="1">  1       21 0.99144798E-02 0.19033121E+03</pdfrwt>
<pdfrwt beam="2">  1       21 0.10463830E+00 0.19033121E+03</pdfrwt>
<totfact> 0.60760874E+04</totfact>
</mgrwt>
</event>
<event>
 4    1  0.4263413E+000  0.1832233E+03  0.7546771E-02  0.1164719E+00
         21   -1    0    0  501  502  0.00000000000E+00  0.00000000000E+00  0.66382847205E+02  0.66382847205E+02  0.00000000000E+00 0. -1.
         21   -1    0    0  502  503 -0.00000000000E+00 -0.00000000000E+00 -0.50847016121E+03  0.50847016121E+03  0.00000000000E+00 0. -1.
          6    1    1    2  501    0  0.31575667807E+02 -0.51427205022E+02 -0.19988476393E+03  0.27115438235E+03  0.17300000000E+03 0. -1.
         -6    1    1    2    0  503 -0.31575667807E+02  0.51427205022E+02 -0.24220255007E+03  0.30369862607E+03  0.17300000000E+03 0. -1.
<mgrwt>
<rscale>  2 0.18322331E+03</rscale>
<asrwt>0</asrwt>
<pdfrwt beam="1">  1       21 0.10212746E-01 0.18322331E+03</pdfrwt>
<pdfrwt beam="2">  1       21 0.78226176E-01 0.18322331E+03</pdfrwt>
<totfact> 0.11350441E+05</totfact>
</mgrwt>
</event>
<event>
 4    1  0.4263413E+000  0.1974706E+03  0.7546771E-02  0.1151891E+00
         21   -1    0    0  501  502  0.00000000000E+00  0.00000000000E+00  0.12354306834E+03  0.12354306834E+03  0.00000000000E+00 0. -1.
         21   -1    0    0  502  503 -0.00000000000E+00 -0.00000000000E+00 -0.73769689444E+03  0.73769689444E+03  0.00000000000E+00 0.  1.
          6    1    1    2  501    0  0.95085660164E+02 -0.49344202596E+01 -0.63279568878E+03  0.66289140514E+03  0.17300000000E+03 0.  1.
         -6    1    1    2    0  503 -0.95085660164E+02  0.49344202596E+01  0.18641862685E+02  0.19834855764E+03  0.17300000000E+03 0. -1.
<mgrwt>
<rscale>  2 0.19747058E+03</rscale>
<asrwt>0</asrwt>
<pdfrwt beam="1">  1       21 0.19006626E-01 0.19747058E+03</pdfrwt>
<pdfrwt beam="2">  1       21 0.11349183E+00 0.19747058E+03</pdfrwt>
<totfact> 0.15317429E+04</totfact>
</mgrwt>
</event>
<event>
 4    1  0.4263413E+000  0.2061660E+03  0.7546771E-02  0.1144639E+00
         21   -1    0    0  503  502  0.00000000000E+00  0.00000000000E+00  0.46041891786E+03  0.46041891786E+03  0.00000000000E+00 0. -1.
         21   -1    0    0  501  503 -0.00000000000E+00 -0.00000000000E+00 -0.93155268073E+02  0.93155268073E+02  0.00000000000E+00 0.  1.
          6    1    1    2  501    0 -0.70009412623E+01 -0.11192134058E+03  0.15737233814E+03  0.25936548048E+03  0.17300000000E+03 0. -1.
         -6    1    1    2    0  502  0.70009412623E+01  0.11192134058E+03  0.20989131165E+03  0.29420870545E+03  0.17300000000E+03 0. -1.
<mgrwt>
<rscale>  2 0.20616595E+03</rscale>
<asrwt>0</asrwt>
<pdfrwt beam="1">  1       21 0.70833679E-01 0.20616595E+03</pdfrwt>
<pdfrwt beam="2">  1       21 0.14331580E-01 0.20616595E+03</pdfrwt>
<totfact> 0.76468795E+04</totfact>
</mgrwt>
</event>
<event>
 4    1  0.4263413E+000  0.2162330E+03  0.7546771E-02  0.1136723E+00
         21   -1    0    0  503  502  0.00000000000E+00  0.00000000000E+00  0.79003435312E+03  0.79003435312E+03  0.00000000000E+00 0.  1.
         21   -1    0    0  501  503 -0.00000000000E+00 -0.00000000000E+00 -0.12321928407E+03  0.12321928407E+03  0.00000000000E+00 0. -1.
          6    1    1    2  501    0 -0.38327434741E+02  0.12393037734E+03  0.42266650243E+01  0.21627435211E+03  0.17300000000E+03 0. -1.
         -6    1    1    2    0  502  0.38327434741E+02 -0.12393037734E+03  0.66258840403E+03  0.69697928509E+03  0.17300000000E+03 0.  1.
<mgrwt>
<rscale>  2 0.21623305E+03</rscale>
<asrwt>0</asrwt>
<pdfrwt beam="1">  1       21 0.12154374E+00 0.21623305E+03</pdfrwt>
<pdfrwt beam="2">  1       21 0.18956813E-01 0.21623305E+03</pdfrwt>
<totfact> 0.12842460E+04</totfact>
</mgrwt>
</event>
<event>
 4    1  0.4263413E+000  0.2176637E+03  0.7546771E-02  0.1135637E+00
         21   -1    0    0  501  502  0.00000000000E+00  0.00000000000E+00  0.99807691273E+03  0.99807691273E+03  0.00000000000E+00 0.  1.
         21   -1    0    0  502  503 -0.00000000000E+00 -0.00000000000E+00 -0.48810285179E+02  0.48810285179E+02  0.00000000000E+00 0.  1.
          6    1    1    2  501    0 -0.13145448454E+03 -0.12968838501E+02  0.56141215007E+03  0.60213044644E+03  0.17300000000E+03 0.  1.
         -6    1    1    2    0  503  0.13145448454E+03  0.12968838501E+02  0.38785447748E+03  0.44475675147E+03  0.17300000000E+03 0.  1.
<mgrwt>
<rscale>  2 0.21766367E+03</rscale>
<asrwt>0</asrwt>
<pdfrwt beam="1">  1       21 0.15355028E+00 0.21766367E+03</pdfrwt>
<pdfrwt beam="2">  1       21 0.75092754E-02 0.21766367E+03</pdfrwt>
<totfact> 0.37087052E+04</totfact>
</mgrwt>
</event>
<event>
 4    1  0.4263413E+000  0.2318691E+03  0.7546771E-02  0.1125331E+00
         21   -1    0    0  501  502  0.00000000000E+00  0.00000000000E+00  0.16287928438E+03  0.16287928438E+03  0.00000000000E+00 0. -1.
         21   -1    0    0  502  503 -0.00000000000E+00 -0.00000000000E+00 -0.12152704767E+04  0.12152704767E+04  0.00000000000E+00 0. -1.
          6    1    1    2  501    0  0.93622231129E+02  0.12275648415E+03  0.61900351902E+02  0.23998943754E+03  0.17300000000E+03 0. -1.
         -6    1    1    2    0  503 -0.93622231129E+02 -0.12275648415E+03 -0.11142915442E+04  0.11381603235E+04  0.17300000000E+03 0. -1.
<mgrwt>
<rscale>  2 0.23186909E+03</rscale>
<asrwt>0</asrwt>
<pdfrwt beam="1">  1       21 0.25058350E-01 0.23186909E+03</pdfrwt>
<pdfrwt beam="2">  1       21 0.18696470E+00 0.23186909E+03</pdfrwt>
<totfact> 0.23752632E+03</totfact>
</mgrwt>
</event>
<event>
 4    1  0.4263413E+000  0.1779225E+03  0.7546771E-02  0.1169829E+00
         21   -1    0    0  503  502  0.00000000000E+00  0.00000000000E+00  0.90750325262E+02  0.90750325262E+02  0.00000000000E+00 0.  1.
         21   -1    0    0  501  503 -0.00000000000E+00 -0.00000000000E+00 -0.56726820477E+03  0.56726820477E+03  0.00000000000E+00 0.  1.
          6    1    1    2  501    0 -0.19527891567E+02  0.36689020125E+02 -0.44242255668E+03  0.47685861784E+03  0.17300000000E+03 0.  1.
         -6    1    1    2    0  502  0.19527891567E+02 -0.36689020125E+02 -0.34095322827E+02  0.18115991219E+03  0.17300000000E+03 0.  1.
<mgrwt>
<rscale>  2 0.17792252E+03</rscale>
<asrwt>0</asrwt>
<pdfrwt beam="1">  1       21 0.13961589E-01 0.17792252E+03</pdfrwt>
<pdfrwt beam="2">  1       21 0.87272031E-01 0.17792252E+03</pdfrwt>
<totfact> 0.50765678E+04</totfact>
</mgrwt>
</event>
<event>
 4    1  0.4263413E+000  0.2319244E+03  0.7546771E-02  0.1125293E+00
         21   -1    0    0  503  502  0.00000000000E+00  0.00000000000E+00  0.48372847313E+03  0.48372847313E+03  0.00000000000E+00 0.  1.
         21   -1    0    0  501  503 -0.00000000000E+00 -0.00000000000E+00 -0.12553966052E+03  0.12553966052E+03  0.00000000000E+00 0.  1.
          6    1    1    2  501    0  0.15249346499E+03 -0.24610263657E+02  0.28206427241E+03  0.36517006409E+03  0.17300000000E+03 0.  1.
         -6    1    1    2    0  502 -0.15249346499E+03  0.24610263657E+02  0.76124540199E+02  0.24409806956E+03  0.17300000000E+03 0.  1.
<mgrwt>
<rscale>  2 0.23192439E+03</rscale>
<asrwt>0</asrwt>
<pdfrwt beam="1">  1       21 0.74419764E-01 0.23192439E+03</pdfrwt>
<pdfrwt beam="2">  1       21 0.19313794E-01 0.23192439E+03</pdfrwt>
<totfact> 0.39081665E+04</totfact>
</mgrwt>
</event>
<event>
 4    1  0.4263413E+000  0.1875581E+03  0.7546771E-02  0.1160682E+00
         21   -1    0    0  503  502  0.00000000000E+00  0.00000000000E+00  0.77625275645E+02  0.77625275645E+02  0.00000000000E+00 0. -1.
         21   -1    0    0  501  503 -0.00000000000E+00 -0.00000000000E+00 -0.51282900634E+03  0.51282900634E+03  0.00000000000E+00 0. -1.
          6    1    1    2  501    0  0.64292036306E+02 -0.33400063093E+02 -0.31829053747E+03  0.36944133011E+03  0.17300000000E+03 0.  1.
         -6    1    1    2    0  502 -0.64292036306E+02  0.33400063093E+02 -0.11691319322E+03  0.22101295187E+03  0.17300000000E+03 0.  1.
<mgrwt>
<rscale>  2 0.18755807E+03</rscale>
<asrwt>0</asrwt>
<pdfrwt beam="1">  1       21 0.11942350E-01 0.18755807E+03</pdfrwt>
<pdfrwt beam="2">  1       21 0.78896769E-01 0.18755807E+03</pdfrwt>
<totfact> 0.84176380E+04</totfact>
</mgrwt>
</event>
<event>
 4    1  0.4263413E+000  0.1840871E+03  0.7546771E-02  0.1163905E+00
         21   -1    0    0  501  502  0.00000000000E+00  0.00000000000E+00  0.32054987185E+03  0.32054987185E+03  0.00000000000E+00 0. -1.
         21   -1    0    0  502  503 -0.00000000000E+00 -0.00000000000E+00 -0.26163689083E+03  0.26163689083E+03  0.00000000000E+00 0. -1.
          6    1    1    2  501    0  0.61153559757E+02 -0.14809462874E+02  0.25417114652E+03  0.31383283732E+03  0.17300000000E+03 0. -1.
         -6    1    1    2    0  503 -0.61153559757E+02  0.14809462874E+02 -0.19525816550E+03  0.26835392536E+03  0.17300000000E+03 0. -1.
<mgrwt>
<rscale>  2 0.18408715E+03</rscale>
<asrwt>0</asrwt>
<pdfrwt beam="1">  1       21 0.49315365E-01 0.18408715E+03</pdfrwt>
<pdfrwt beam="2">  1       21 0.40251829E-01 0.18408715E+03</pdfrwt>
<totfact> 0.23437342E+04</totfact>
</mgrwt>
</event>
<event>
 4    1  0.4263413E+000  0.2237483E+03  0.7546771E-02  0.1131119E+00
         21   -1    0    0  501  502  0.00000000000E+00  0.00000000000E+00  0.82596404400E+02  0.82596404400E+02  0.00000000000E+00 0.  1.
         21   -1    0    0  502  503 -0.00000000000E+00 -0.00000000000E+00 -0.11589757035E+04  0.11589757035E+04  0.00000000000E+00 0.  1.
          6    1    1    2  501    0 -0.11489453244E+03 -0.83267818328E+02 -0.10943295065E+03  0.24907600013E+03  0.17300000000E+03 0.  1.
         -6    1    1    2    0  503  0.11489453244E+03  0.83267818328E+02 -0.96694634846E+03  0.99249610778E+03  0.17300000000E+03 0.  1.
<mgrwt>
<rscale>  2 0.22374826E+03</rscale>
<asrwt>0</asrwt>
<pdfrwt beam="1">  1       21 0.12707140E-01 0.22374826E+03</pdfrwt>
<pdfrwt beam="2">  1       21 0.17830395E+00 0.22374826E+03</pdfrwt>
<totfact> 0.96621366E+03</totfact>
</mgrwt>
</event>
<event>
 4    1  0.4263413E+000  0.2603191E+03  0.7546771E-02  0.1106952E+00
         21   -1    0    0  501  502  0.00000000000E+00  0.00000000000E+00  0.14624532444E+03  0.14624532444E+03  0.00000000000E+00 0. -1.
         21   -1    0    0  502  503 -0.00000000000E+00 -0.00000000000E+00 -0.49405259016E+03  0.49405259016E+03  0.00000000000E+00 0.  1.
          6    1    1    2  501    0  0.11136659437E+03 -0.15948205967E+03 -0.94123530946E+02  0.27681272510E+03  0.17300000000E+03 0.  1.
         -6    1    1    2    0  503 -0.11136659437E+03  0.15948205967E+03 -0.25368373478E+03  0.36348518950E+03  0.17300000000E+03 0. -1.
<mgrwt>
<rscale>  2 0.26031912E+03</rscale>
<asrwt>0</asrwt>
<pdfrwt beam="1">  1       21 0.22499281E-01 0.26031912E+03</pdfrwt>
<pdfrwt beam="2">  1       21 0.76008091E-01 0.26031912E+03</pdfrwt>
<totfact> 0.27593041E+04</totfact>
</mgrwt>
</event>
<event>
 4    1  0.4263413E+000  0.2133929E+03  0.7546771E-02  0.1138907E+00
         21   -1    0    0  501  502  0.00000000000E+00  0.00000000000E+00  0.42435539074E+03  0.42435539074E+03  0.00000000000E+00 0. -1.
         21   -1    0    0  502  503 -0.00000000000E+00 -0.00000000000E+00 -0.15845545838E+03  0.15845545838E+03  0.00000000000E+00 0. -1.
          6    1    1    2  501    0  0.84986747362E+02  0.91568562841E+02  0.29851089454E+03  0.36694046259E+03  0.17300000000E+03 0. -1.
         -6    1    1    2    0  503 -0.84986747362E+02 -0.91568562841E+02 -0.32610962176E+02  0.21587038653E+03  0.17300000000E+03 0. -1.
<mgrwt>
<rscale>  2 0.21339294E+03</rscale>
<asrwt>0</asrwt>
<pdfrwt beam="1">  1       21 0.65285444E-01 0.21339294E+03</pdfrwt>
<pdfrwt beam="2">  1       21 0.24377763E-01 0.21339294E+03</pdfrwt>
<totfact> 0.33933078E+04</totfact>
</mgrwt>
</event>
<event>
 4    1  0.4263413E+000  0.2478389E+03  0.7546771E-02  0.1114678E+00
         21   -1    0    0  503  502  0.00000000000E+00  0.00000000000E+00  0.63311323492E+03  0.63311323492E+03  0.00000000000E+00 0. -1.
         21   -1    0    0  501  503 -0.00000000000E+00 -0.00000000000E+00 -0.11768702410E+03  0.11768702410E+03  0.00000000000E+00 0. -1.
          6    1    1    2  501    0 -0.86681083086E+02 -0.15485957395E+03  0.10039518429E+03  0.26740099259E+03  0.17300000000E+03 0. -1.
         -6    1    1    2    0  502  0.86681083086E+02  0.15485957395E+03  0.41503102653E+03  0.48339926643E+03  0.17300000000E+03 0. -1.
<mgrwt>
<rscale>  2 0.24783885E+03</rscale>
<asrwt>0</asrwt>
<pdfrwt beam="1">  1       21 0.97402034E-01 0.24783885E+03</pdfrwt>
<pdfrwt beam="2">  1       21 0.18105696E-01 0.24783885E+03</pdfrwt>
<totfact> 0.23541076E+04</totfact>
</mgrwt>
</event>
<event>
 4    1  0.4263413E+000  0.2046379E+03  0.7546771E-02  0.1145884E+00
         21   -1    0    0  503  502  0.00000000000E+00  0.00000000000E+00  0.29313950594E+02  0.29313950594E+02  0.00000000000E+00 0. -1.
         21   -1    0    0  501  503 -0.00000000000E+00 -0.00000000000E+00 -0.16774221072E+04  0.16774221072E+04  0.00000000000E+00 0. -1.
          6    1    1    2  501    0  0.10929417747E+03 -0.15716395563E+01 -0.11527513215E+04  0.11707742295E+04  0.17300000000E+03 0. -1.
         -6    1    1    2    0  502 -0.10929417747E+03  0.15716395563E+01 -0.49535683506E+03  0.53596182823E+03  0.17300000000E+03 0. -1.
<mgrwt>
<rscale>  2 0.20463794E+03</rscale>
<asrwt>0</asrwt>
<pdfrwt beam="1">  1       21 0.45098380E-02 0.20463794E+03</pdfrwt>
<pdfrwt beam="2">  1       21 0.25806497E+00 0.20463794E+03</pdfrwt>
<totfact> 0.18898551E+04</totfact>
</mgrwt>
</event>
<event>
 4    1  0.4263413E+000  0.1990541E+03  0.7546771E-02  0.1150540E+00
         21   -1    0    0  501  502  0.00000000000E+00  0.00000000000E+00  0.16630202188E+03  0.16630202188E+03  0.00000000000E+00 0. -1.
         21   -1    0    0  502  503 -0.00000000000E+00 -0.00000000000E+00 -0.24453807079E+03  0.24453807079E+03  0.00000000000E+00 0.  1.
          6    1    1    2  501    0  0.10243284918E+02 -0.97921457528E+02 -0.61946828576E+01  0.19915047282E+03  0.17300000000E+03 0. -1.
         -6    1    1    2    0  503 -0.10243284918E+02  0.97921457528E+02 -0.72041366046E+02  0.21168961985E+03  0.17300000000E+03 0. -1.
<mgrwt>
<rscale>  2 0.19905411E+03</rscale>
<asrwt>0</asrwt>
<pdfrwt beam="1">  1       21 0.25584926E-01 0.19905411E+03</pdfrwt>
<pdfrwt beam="2">  1       21 0.37621242E-01 0.19905411E+03</pdfrwt>
<totfact> 0.98492746E+04</totfact>
</mgrwt>
</event>
<event>
 4    1  0.4263413E+000  0.2934300E+03  0.7546771E-02  0.1088572E+00
         21   -1    0    0  501  502  0.00000000000E+00  0.00000000000E+00  0.18990801488E+03  0.18990801488E+03  0.00000000000E+00 0. -1.
         21   -1    0    0  502  503 -0.00000000000E+00 -0.00000000000E+00 -0.60053337657E+03  0.60053337657E+03  0.00000000000E+00 0.  1.
          6    1    1    2  501    0  0.20191098146E+03  0.12411322917E+03 -0.96755754825E+01  0.29358943246E+03  0.17300000000E+03 0. -1.
         -6    1    1    2    0  503 -0.20191098146E+03 -0.12411322917E+03 -0.40094978621E+03  0.49685195899E+03  0.17300000000E+03 0.  1.
<mgrwt>
<rscale>  2 0.29342995E+03</rscale>
<asrwt>0</asrwt>
<pdfrwt beam="1">  1       21 0.29216618E-01 0.29342995E+03</pdfrwt>
<pdfrwt beam="2">  1       21 0.92389750E-01 0.29342995E+03</pdfrwt>
<totfact> 0.10466956E+04</totfact>
</mgrwt>
</event>
<event>
 4    1  0.4263413E+000  0.1824167E+03  0.7546771E-02  0.1165484E+00
         21   -1    0    0  503  502  0.00000000000E+00  0.00000000000E+00  0.38598774696E+02  0.38598774696E+02  0.00000000000E+00 0. -1.
         21   -1    0    0  501  503 -0.00000000000E+00 -0.00000000000E+00 -0.15013855737E+04  0.15013855737E+04  0.00000000000E+00 0. -1.
          6    1    1    2  501    0 -0.52571948635E+02  0.24146327389E+02 -0.12338388904E+04  0.12472506815E+04  0.17300000000E+03 0. -1.
         -6    1    1    2    0  502  0.52571948635E+02 -0.24146327389E+02 -0.22894790859E+03  0.29273366694E+03  0.17300000000E+03 0. -1.
<mgrwt>
<rscale>  2 0.18241671E+03</rscale>
<asrwt>0</asrwt>
<pdfrwt beam="1">  1       21 0.59382740E-02 0.18241671E+03</pdfrwt>
<pdfrwt beam="2">  1       21 0.23098236E+00 0.18241671E+03</pdfrwt>
<totfact> 0.17466945E+04</totfact>
</mgrwt>
</event>
<event>
 4    1  0.4263413E+000  0.1731080E+03  0.7546771E-02  0.1174645E+00
         21   -1    0    0  503  502  0.00000000000E+00  0.00000000000E+00  0.72466239418E+03  0.72466239418E+03  0.00000000000E+00 0. -1.
         21   -1    0    0  501  503 -0.00000000000E+00 -0.00000000000E+00 -0.42799227841E+02  0.42799227841E+02  0.00000000000E+00 0. -1.
          6    1    1    2  501    0 -0.27436254510E+01  0.54652187022E+01  0.41148932883E+03  0.44641893311E+03  0.17300000000E+03 0. -1.
         -6    1    1    2    0  502  0.27436254510E+01 -0.54652187022E+01  0.27037383751E+03  0.32104268892E+03  0.17300000000E+03 0. -1.
<mgrwt>
<rscale>  2 0.17310805E+03</rscale>
<asrwt>0</asrwt>
<pdfrwt beam="1">  1       21 0.11148651E+00 0.17310805E+03</pdfrwt>
<pdfrwt beam="2">  1       21 0.65844971E-02 0.17310805E+03</pdfrwt>
<totfact> 0.10714892E+05</totfact>
</mgrwt>
</event>
<event>
 4    1  0.4263413E+000  0.2327881E+03  0.7546771E-02  0.1124693E+00
         21   -1    0    0  501  502  0.00000000000E+00  0.00000000000E+00  0.15678978071E+03  0.15678978071E+03  0.00000000000E+00 0. -1.
         21   -1    0    0  502  503 -0.00000000000E+00 -0.00000000000E+00 -0.35261621928E+03  0.35261621928E+03  0.00000000000E+00 0.  1.
          6    1    1    2  501    0 -0.15254882280E+03 -0.31467103812E+02 -0.62046776958E+02  0.24091518111E+03  0.17300000000E+03 0.  1.
         -6    1    1    2    0  503  0.15254882280E+03  0.31467103812E+02 -0.13377966161E+03  0.26849081888E+03  0.17300000000E+03 0. -1.
<mgrwt>
<rscale>  2 0.23278815E+03</rscale>
<asrwt>0</asrwt>
<pdfrwt beam="1">  1       21 0.24121505E-01 0.23278815E+03</pdfrwt>
<pdfrwt beam="2">  1       21 0.54248648E-01 0.23278815E+03</pdfrwt>
<totfact> 0.51116923E+04</totfact>
</mgrwt>
</event>
<event>
 4    1  0.4263413E+000  0.2280597E+03  0.7546771E-02  0.1128013E+00
         21   -1    0    0  503  502  0.00000000000E+00  0.00000000000E+00  0.29021916445E+03  0.29021916445E+03  0.00000000000E+00 0.  1.
         21   -1    0    0  501  503 -0.00000000000E+00 -0.00000000000E+00 -0.32615174659E+03  0.32615174659E+03  0.00000000000E+00 0.  1.
          6    1    1    2  501    0 -0.72548905469E+02  0.12968770164E+03 -0.22482292306E+03  0.32024457900E+03  0.17300000000E+03 0.  1.
         -6    1    1    2    0  502  0.72548905469E+02 -0.12968770164E+03  0.18889034092E+03  0.29612633205E+03  0.17300000000E+03 0.  1.
<mgrwt>
<rscale>  2 0.22805974E+03</rscale>
<asrwt>0</asrwt>
<pdfrwt beam="1">  1       21 0.44649102E-01 0.22805974E+03</pdfrwt>
<pdfrwt beam="2">  1       21 0.50177192E-01 0.22805974E+03</pdfrwt>
<totfact> 0.17839852E+04</totfact>
</mgrwt>
</event>
<event>
 4    1  0.4263413E+000  0.1864325E+03  0.7546771E-02  0.1161719E+00
         21   -1    0    0  503  502  0.00000000000E+00  0.00000000000E+00  0.16131736517E+04  0.16131736517E+04  0.00000000000E+00 0.  1.
         21   -1    0    0  501  503 -0.00000000000E+00 -0.00000000000E+00 -0.40909547994E+02  0.40909547994E+02  0.00000000000E+00 0.  1.
          6    1    1    2  501    0  0.48019698613E+02  0.50221480850E+02  0.21713512351E+03  0.28619006002E+03  0.17300000000E+03 0.  1.
         -6    1    1    2    0  502 -0.48019698613E+02 -0.50221480850E+02  0.13551289802E+04  0.13678931397E+04  0.17300000000E+03 0.  1.
<mgrwt>
<rscale>  2 0.18643253E+03</rscale>
<asrwt>0</asrwt>
<pdfrwt beam="1">  1       21 0.24818051E+00 0.18643253E+03</pdfrwt>
<pdfrwt beam="2">  1       21 0.62937779E-02 0.18643253E+03</pdfrwt>
<totfact> 0.12453612E+04</totfact>
</mgrwt>
</event>
<event>
 4    1  0.4263413E+000  0.1895631E+03  0.7546771E-02  0.1158856E+00
         21   -1    0    0  503  502  0.00000000000E+00  0.00000000000E+00  0.62065315851E+02  0.62065315851E+02  0.00000000000E+00 0.  1.
         21   -1    0    0  501  503 -0.00000000000E+00 -0.00000000000E+00 -0.60418284963E+03  0.60418284963E+03  0.00000000000E+00 0.  1.
          6    1    1    2  501    0 -0.76256435655E+02 -0.13789106329E+02 -0.33910455168E+03  0.38849205964E+03  0.17300000000E+03 0.  1.
         -6    1    1    2    0  502  0.76256435655E+02  0.13789106329E+02 -0.20301298210E+03  0.27775610584E+03  0.17300000000E+03 0.  1.
<mgrwt>
<rscale>  2 0.18956314E+03</rscale>
<asrwt>0</asrwt>
<pdfrwt beam="1">  1       21 0.95485105E-02 0.18956314E+03</pdfrwt>
<pdfrwt beam="2">  1       21 0.92951204E-01 0.18956314E+03</pdfrwt>
<totfact> 0.85924433E+04</totfact>
</mgrwt>
</event>
<event>
 4    1  0.4263413E+000  0.1851368E+03  0.7546771E-02  0.1162922E+00
         21   -1    0    0  501  502  0.00000000000E+00  0.00000000000E+00  0.34954979216E+03  0.34954979216E+03  0.00000000000E+00 0.  1.
         21   -1    0    0  502  503 -0.00000000000E+00 -0.00000000000E+00 -0.98381044057E+02  0.98381044057E+02  0.00000000000E+00 0.  1.
          6    1    1    2  501    0 -0.25577971625E+02 -0.60765178422E+02  0.13844737428E+03  0.23117810230E+03  0.17300000000E+03 0.  1.
         -6    1    1    2    0  503  0.25577971625E+02  0.60765178422E+02  0.11272137383E+03  0.21675273391E+03  0.17300000000E+03 0.  1.
<mgrwt>
<rscale>  2 0.18513681E+03</rscale>
<asrwt>0</asrwt>
<pdfrwt beam="1">  1       21 0.53776890E-01 0.18513681E+03</pdfrwt>
<pdfrwt beam="2">  1       21 0.15135545E-01 0.18513681E+03</pdfrwt>
<totfact> 0.12655708E+05</totfact>
</mgrwt>
</event>
<event>
 4    1  0.4263413E+000  0.1896577E+03  0.7546771E-02  0.1158770E+00
         21   -1    0    0  501  502  0.00000000000E+00  0.00000000000E+00  0.60350219453E+02  0.60350219453E+02  0.00000000000E+00 0.  1.
         21   -1    0    0  502  503 -0.00000000000E+00 -0.00000000000E+00 -0.61029460952E+03  0.61029460952E+03  0.00000000000E+00 0.  1.
          6    1    1    2  501    0 -0.16240707839E+02 -0.76008516718E+02 -0.22369251106E+03  0.29327187848E+03  0.17300000000E+03 0. -1.
         -6    1    1    2    0  503  0.16240707839E+02  0.76008516718E+02 -0.32625187901E+03  0.37737295049E+03  0.17300000000E+03 0. -1.
<mgrwt>
<rscale>  2 0.18965773E+03</rscale>
<asrwt>0</asrwt>
<pdfrwt beam="1">  1       21 0.92846495E-02 0.18965773E+03</pdfrwt>
<pdfrwt beam="2">  1       21 0.93891475E-01 0.18965773E+03</pdfrwt>
<totfact> 0.88168672E+04</totfact>
</mgrwt>
</event>
<event>
 4    1  0.4263413E+000  0.2566556E+03  0.7546771E-02  0.1109169E+00
         21   -1    0    0  501  502  0.00000000000E+00  0.00000000000E+00  0.65475162456E+02  0.65475162456E+02  0.00000000000E+00 0. -1.
         21   -1    0    0  502  503 -0.00000000000E+00 -0.00000000000E+00 -0.10319518813E+04  0.10319518813E+04  0.00000000000E+00 0.  1.
          6    1    1    2  501    0 -0.86264915605E+02  0.16882369391E+03 -0.39632617584E+03  0.47217212217E+03  0.17300000000E+03 0.  1.
         -6    1    1    2    0  503  0.86264915605E+02 -0.16882369391E+03 -0.57015054299E+03  0.62525492158E+03  0.17300000000E+03 0. -1.
<mgrwt>
<rscale>  2 0.25665556E+03</rscale>
<asrwt>0</asrwt>
<pdfrwt beam="1">  1       21 0.10073102E-01 0.25665556E+03</pdfrwt>
<pdfrwt beam="2">  1       21 0.15876183E+00 0.25665556E+03</pdfrwt>
<totfact> 0.19794672E+04</totfact>
</mgrwt>
</event>
<event>
 4    1  0.4263413E+000  0.3423879E+03  0.7546771E-02  0.1065783E+00
         21   -1    0    0  503  502  0.00000000000E+00  0.00000000000E+00  0.23274165316E+03  0.23274165316E+03  0.00000000000E+00 0. -1.
         21   -1    0    0  501  503 -0.00000000000E+00 -0.00000000000E+00 -0.68130287853E+03  0.68130287853E+03  0.00000000000E+00 0.  1.
          6    1    1    2  501    0  0.21001813468E+03 -0.20782892577E+03 -0.45762928549E+03  0.57153656245E+03  0.17300000000E+03 0.  1.
         -6    1    1    2    0  502 -0.21001813468E+03  0.20782892577E+03  0.90680601131E+01  0.34250796924E+03  0.17300000000E+03 0. -1.
<mgrwt>
<rscale>  2 0.34238791E+03</rscale>
<asrwt>0</asrwt>
<pdfrwt beam="1">  1       21 0.35806408E-01 0.34238791E+03</pdfrwt>
<pdfrwt beam="2">  1       21 0.10481583E+00 0.34238791E+03</pdfrwt>
<totfact> 0.50458864E+03</totfact>
</mgrwt>
</event>
<event>
 4    1  0.4263413E+000  0.1808717E+03  0.7546771E-02  0.1166962E+00
         21   -1    0    0  503  502  0.00000000000E+00  0.00000000000E+00  0.14038163342E+04  0.14038163342E+04  0.00000000000E+00 0. -1.
         21   -1    0    0  501  503 -0.00000000000E+00 -0.00000000000E+00 -0.57608889064E+02  0.57608889064E+02  0.00000000000E+00 0. -1.
          6    1    1    2  501    0 -0.40143577030E+02 -0.34264822357E+02  0.10923287530E+03  0.21129696135E+03  0.17300000000E+03 0. -1.
         -6    1    1    2    0  502  0.40143577030E+02  0.34264822357E+02  0.12369745699E+04  0.12501282619E+04  0.17300000000E+03 0. -1.
<mgrwt>
<rscale>  2 0.18087174E+03</rscale>
<asrwt>0</asrwt>
<pdfrwt beam="1">  1       21 0.21597172E+00 0.18087174E+03</pdfrwt>
<pdfrwt beam="2">  1       21 0.88629071E-02 0.18087174E+03</pdfrwt>
<totfact> 0.10800475E+04</totfact>
</mgrwt>
</event>
<event>
 4    1  0.4263413E+000  0.2150170E+03  0.7546771E-02  0.1137654E+00
         21   -1    0    0  501  502  0.00000000000E+00  0.00000000000E+00  0.90232254491E+02  0.90232254491E+02  0.00000000000E+00 0.  1.
         21   -1    0    0  502  503 -0.00000000000E+00 -0.00000000000E+00 -0.65093969073E+03  0.65093969073E+03  0.00000000000E+00 0.  1.
          6    1    1    2  501    0  0.82401439867E+02  0.97536154314E+02 -0.10937078991E+03  0.24123488217E+03  0.17300000000E+03 0.  1.
         -6    1    1    2    0  503 -0.82401439867E+02 -0.97536154314E+02 -0.45133664633E+03  0.49993706305E+03  0.17300000000E+03 0.  1.
<mgrwt>
<rscale>  2 0.21501697E+03</rscale>
<asrwt>0</asrwt>
<pdfrwt beam="1">  1       21 0.13881885E-01 0.21501697E+03</pdfrwt>
<pdfrwt beam="2">  1       21 0.10014457E+00 0.21501697E+03</pdfrwt>
<totfact> 0.36497986E+04</totfact>
</mgrwt>
</event>
<event>
 4    1  0.4263413E+000  0.1808931E+03  0.7546771E-02  0.1166941E+00
         21   -1    0    0  503  502  0.00000000000E+00  0.00000000000E+00  0.73075443920E+03  0.73075443920E+03  0.00000000000E+00 0.  1.
         21   -1    0    0  501  503 -0.00000000000E+00 -0.00000000000E+00 -0.45038941203E+02  0.45038941203E+02  0.00000000000E+00 0.  1.
          6    1    1    2  501    0  0.41975478332E+01 -0.52684925746E+02  0.31337889127E+03  0.36184064213E+03  0.17300000000E+03 0.  1.
         -6    1    1    2    0  502 -0.41975478332E+01  0.52684925746E+02  0.37233660673E+03  0.41395273827E+03  0.17300000000E+03 0.  1.
<mgrwt>
<rscale>  2 0.18089312E+03</rscale>
<asrwt>0</asrwt>
<pdfrwt beam="1">  1       21 0.11242375E+00 0.18089312E+03</pdfrwt>
<pdfrwt beam="2">  1       21 0.69290684E-02 0.18089312E+03</pdfrwt>
<totfact> 0.95852778E+04</totfact>
</mgrwt>
</event>
<event>
 4    1  0.4263413E+000  0.2880787E+03  0.7546771E-02  0.1091357E+00
         21   -1    0    0  501  502  0.00000000000E+00  0.00000000000E+00  0.41923117850E+02  0.41923117850E+02  0.00000000000E+00 0.  1.
         21   -1    0    0  502  503 -0.00000000000E+00 -0.00000000000E+00 -0.19993514902E+04  0.19993514902E+04  0.00000000000E+00 0. -1.
          6    1    1    2  501    0  0.21321858610E+03  0.87167540002E+02 -0.87716853775E+03  0.92326268695E+03  0.17300000000E+03 0. -1.
         -6    1    1    2    0  503 -0.21321858610E+03 -0.87167540002E+02 -0.10802598346E+04  0.11180119211E+04  0.17300000000E+03 0.  1.
<mgrwt>
<rscale>  2 0.28807871E+03</rscale>
<asrwt>0</asrwt>
<pdfrwt beam="1">  1       21 0.64497109E-02 0.28807871E+03</pdfrwt>
<pdfrwt beam="2">  1       21 0.30759251E+00 0.28807871E+03</pdfrwt>
<totfact> 0.49061663E+03</totfact>
</mgrwt>
</event>
<event>
 4    1  0.4263413E+000  0.3007337E+03  0.7546771E-02  0.1084874E+00
         21   -1    0    0  501  502  0.00000000000E+00  0.00000000000E+00  0.18052702262E+03  0.18052702262E+03  0.00000000000E+00 0.  1.
         21   -1    0    0  502  503 -0.00000000000E+00 -0.00000000000E+00 -0.98720583378E+03  0.98720583378E+03  0.00000000000E+00 0.  1.
          6    1    1    2  501    0 -0.20576482761E+03 -0.13480585714E+03  0.64189167609E+01  0.30080223718E+03  0.17300000000E+03 0.  1.
         -6    1    1    2    0  503  0.20576482761E+03  0.13480585714E+03 -0.81309772792E+03  0.86693061922E+03  0.17300000000E+03 0.  1.
<mgrwt>
<rscale>  2 0.30073374E+03</rscale>
<asrwt>0</asrwt>
<pdfrwt beam="1">  1       21 0.27773388E-01 0.30073374E+03</pdfrwt>
<pdfrwt beam="2">  1       21 0.15187782E+00 0.30073374E+03</pdfrwt>
<totfact> 0.33108167E+03</totfact>
</mgrwt>
</event>
<event>
 4    1  0.4263413E+000  0.1885135E+03  0.7546771E-02  0.1159809E+00
         21   -1    0    0  503  502  0.00000000000E+00  0.00000000000E+00  0.16604792565E+03  0.16604792565E+03  0.00000000000E+00 0. -1.
         21   -1    0    0  501  503 -0.00000000000E+00 -0.00000000000E+00 -0.22351116280E+03  0.22351116280E+03  0.00000000000E+00 0. -1.
          6    1    1    2  501    0 -0.74876221485E+02  0.13741120383E+01 -0.68872467920E+02  0.20070065661E+03  0.17300000000E+03 0. -1.
         -6    1    1    2    0  502  0.74876221485E+02 -0.13741120383E+01  0.11409230772E+02  0.18885843183E+03  0.17300000000E+03 0. -1.
<mgrwt>
<rscale>  2 0.18851349E+03</rscale>
<asrwt>0</asrwt>
<pdfrwt beam="1">  1       21 0.25545835E-01 0.18851349E+03</pdfrwt>
<pdfrwt beam="2">  1       21 0.34386333E-01 0.18851349E+03</pdfrwt>
<totfact> 0.11863218E+05</totfact>
</mgrwt>
</event>
<event>
 4    1  0.4263413E+000  0.1770102E+03  0.7546771E-02  0.1170728E+00
         21   -1    0    0  501  502  0.00000000000E+00  0.00000000000E+00  0.41763910046E+03  0.41763910046E+03  0.00000000000E+00 0. -1.
         21   -1    0    0  502  503 -0.00000000000E+00 -0.00000000000E+00 -0.29652756128E+03  0.29652756128E+03  0.00000000000E+00 0. -1.
          6    1    1    2  501    0  0.27386283936E+02  0.25565514395E+02  0.36917872558E+03  0.40942097589E+03  0.17300000000E+03 0. -1.
         -6    1    1    2    0  503 -0.27386283936E+02 -0.25565514395E+02 -0.24806718641E+03  0.30474568585E+03  0.17300000000E+03 0. -1.
<mgrwt>
<rscale>  2 0.17701018E+03</rscale>
<asrwt>0</asrwt>
<pdfrwt beam="1">  1       21 0.64252169E-01 0.17701018E+03</pdfrwt>
<pdfrwt beam="2">  1       21 0.45619625E-01 0.17701018E+03</pdfrwt>
<totfact> 0.10409716E+04</totfact>
</mgrwt>
</event>
<event>
 4    1  0.4263413E+000  0.2559680E+03  0.7546771E-02  0.1109590E+00
         21   -1    0    0  503  502  0.00000000000E+00  0.00000000000E+00  0.28393262338E+03  0.28393262338E+03  0.00000000000E+00 0. -1.
         21   -1    0    0  501  503 -0.00000000000E+00 -0.00000000000E+00 -0.23118878283E+03  0.23118878283E+03  0.00000000000E+00 0.  1.
          6    1    1    2  501    0 -0.95679517878E+02 -0.16259159970E+03  0.37495607303E+02  0.25869966951E+03  0.17300000000E+03 0.  1.
         -6    1    1    2    0  502  0.95679517878E+02  0.16259159970E+03  0.15248233246E+02  0.25642173670E+03  0.17300000000E+03 0.  1.
<mgrwt>
<rscale>  2 0.25596796E+03</rscale>
<asrwt>0</asrwt>
<pdfrwt beam="1">  1       21 0.43681942E-01 0.25596796E+03</pdfrwt>
<pdfrwt beam="2">  1       21 0.35567505E-01 0.25596796E+03</pdfrwt>
<totfact> 0.37260583E+04</totfact>
</mgrwt>
</event>
<event>
 4    1  0.4263413E+000  0.2129046E+03  0.7546771E-02  0.1139286E+00
         21   -1    0    0  501  502  0.00000000000E+00  0.00000000000E+00  0.17840793126E+03  0.17840793126E+03  0.00000000000E+00 0. -1.
         21   -1    0    0  502  503 -0.00000000000E+00 -0.00000000000E+00 -0.26654157788E+03  0.26654157788E+03  0.00000000000E+00 0.  1.
          6    1    1    2  501    0 -0.11805138290E+03  0.38252396093E+02  0.40539321194E+01  0.21294320646E+03  0.17300000000E+03 0.  1.
         -6    1    1    2    0  503  0.11805138290E+03 -0.38252396093E+02 -0.92187578736E+02  0.23200630268E+03  0.17300000000E+03 0.  1.
<mgrwt>
<rscale>  2 0.21290461E+03</rscale>
<asrwt>0</asrwt>
<pdfrwt beam="1">  1       21 0.27447374E-01 0.21290461E+03</pdfrwt>
<pdfrwt beam="2">  1       21 0.41006396E-01 0.21290461E+03</pdfrwt>
<totfact> 0.71889089E+04</totfact>
</mgrwt>
</event>
<event>
 4    1  0.4263413E+000  0.2466432E+03  0.7546771E-02  0.1115445E+00
         21   -1    0    0  503  502  0.00000000000E+00  0.00000000000E+00  0.19307180813E+03  0.19307180813E+03  0.00000000000E+00 0. -1.
         21   -1    0    0  501  503 -0.00000000000E+00 -0.00000000000E+00 -0.53217761606E+03  0.53217761606E+03  0.00000000000E+00 0.  1.
          6    1    1    2  501    0 -0.11550599564E+03  0.13252262612E+03 -0.40116304702E+03  0.47091896517E+03  0.17300000000E+03 0.  1.
         -6    1    1    2    0  502  0.11550599564E+03 -0.13252262612E+03  0.62057239091E+02  0.25433045902E+03  0.17300000000E+03 0. -1.
<mgrwt>
<rscale>  2 0.24664323E+03</rscale>
<asrwt>0</asrwt>
<pdfrwt beam="1">  1       21 0.29703355E-01 0.24664323E+03</pdfrwt>
<pdfrwt beam="2">  1       21 0.81873479E-01 0.24664323E+03</pdfrwt>
<totfact> 0.13728404E+04</totfact>
</mgrwt>
</event>
<event>
 4    1  0.4263413E+000  0.1787367E+03  0.7546771E-02  0.1169031E+00
         21   -1    0    0  503  502  0.00000000000E+00  0.00000000000E+00  0.90243709442E+02  0.90243709442E+02  0.00000000000E+00 0.  1.
         21   -1    0    0  501  503 -0.00000000000E+00 -0.00000000000E+00 -0.38442095522E+03  0.38442095522E+03  0.00000000000E+00 0.  1.
          6    1    1    2  501    0 -0.26834231876E+02 -0.36023911783E+02 -0.80331399129E+02  0.19595900568E+03  0.17300000000E+03 0.  1.
         -6    1    1    2    0  502  0.26834231876E+02  0.36023911783E+02 -0.21384584665E+03  0.27870565898E+03  0.17300000000E+03 0.  1.
<mgrwt>
<rscale>  2 0.17873667E+03</rscale>
<asrwt>0</asrwt>
<pdfrwt beam="1">  1       21 0.13883648E-01 0.17873667E+03</pdfrwt>
<pdfrwt beam="2">  1       21 0.59141685E-01 0.17873667E+03</pdfrwt>
<totfact> 0.12124302E+05</totfact>
</mgrwt>
</event>
<event>
 4    1  0.4263413E+000  0.1806119E+03  0.7546771E-02  0.1167212E+00
         21   -1    0    0  501  502  0.00000000000E+00  0.00000000000E+00  0.16987247743E+03  0.16987247743E+03  0.00000000000E+00 0.  1.
         21   -1    0    0  502  503 -0.00000000000E+00 -0.00000000000E+00 -0.29889087437E+03  0.29889087437E+03  0.00000000000E+00 0.  1.
          6    1    1    2  501    0 -0.44416523430E+02 -0.26811000014E+02  0.75635329681E+02  0.19580950021E+03  0.17300000000E+03 0.  1.
         -6    1    1    2    0  503  0.44416523430E+02  0.26811000014E+02 -0.20465372662E+03  0.27295385159E+03  0.17300000000E+03 0.  1.
<mgrwt>
<rscale>  2 0.18061190E+03</rscale>
<asrwt>0</asrwt>
<pdfrwt beam="1">  1       21 0.26134228E-01 0.18061190E+03</pdfrwt>
<pdfrwt beam="2">  1       21 0.45983211E-01 0.18061190E+03</pdfrwt>
<totfact> 0.63399402E+04</totfact>
</mgrwt>
</event>
<event>
 4    1  0.4263413E+000  0.1754963E+03  0.7546771E-02  0.1172234E+00
         21   -1    0    0  501  502  0.00000000000E+00  0.00000000000E+00  0.54206273929E+02  0.54206273929E+02  0.00000000000E+00 0. -1.
         21   -1    0    0  502  503 -0.00000000000E+00 -0.00000000000E+00 -0.61013797599E+03  0.61013797599E+03  0.00000000000E+00 0. -1.
          6    1    1    2  501    0 -0.27626376178E+02  0.10330810325E+02 -0.19085858948E+03  0.25927966268E+03  0.17300000000E+03 0.  1.
         -6    1    1    2    0  503  0.27626376178E+02 -0.10330810325E+02 -0.36507311258E+03  0.40506458724E+03  0.17300000000E+03 0.  1.
<mgrwt>
<rscale>  2 0.17549627E+03</rscale>
<asrwt>0</asrwt>
<pdfrwt beam="1">  1       21 0.83394265E-02 0.17549627E+03</pdfrwt>
<pdfrwt beam="2">  1       21 0.93867384E-01 0.17549627E+03</pdfrwt>
<totfact> 0.10707048E+05</totfact>
</mgrwt>
</event>
<event>
 4    1  0.4263413E+000  0.4516902E+03  0.7546771E-02  0.1027219E+00
         21   -1    0    0  501  502  0.00000000000E+00  0.00000000000E+00  0.11399807057E+03  0.11399807057E+03  0.00000000000E+00 0. -1.
         21   -1    0    0  502  503 -0.00000000000E+00 -0.00000000000E+00 -0.18659322866E+04  0.18659322866E+04  0.00000000000E+00 0.  1.
          6    1    1    2  501    0  0.22456447780E+03 -0.35166151776E+03 -0.67588905705E+03  0.81292683877E+03  0.17300000000E+03 0. -1.
         -6    1    1    2    0  503 -0.22456447780E+03  0.35166151776E+03 -0.10760451590E+04  0.11670035184E+04  0.17300000000E+03 0.  1.
<mgrwt>
<rscale>  2 0.45169019E+03</rscale>
<asrwt>0</asrwt>
<pdfrwt beam="1">  1       21 0.17538165E-01 0.45169019E+03</pdfrwt>
<pdfrwt beam="2">  1       21 0.28706650E+00 0.45169019E+03</pdfrwt>
<totfact> 0.96658801E+02</totfact>
</mgrwt>
</event>
<event>
 4    1  0.4263413E+000  0.2125777E+03  0.7546771E-02  0.1139541E+00
         21   -1    0    0  501  502  0.00000000000E+00  0.00000000000E+00  0.37626287420E+03  0.37626287420E+03  0.00000000000E+00 0.  1.
         21   -1    0    0  502  503 -0.00000000000E+00 -0.00000000000E+00 -0.23903654466E+03  0.23903654466E+03  0.00000000000E+00 0. -1.
          6    1    1    2  501    0  0.44050752985E+02  0.11541142342E+03  0.28562407027E+03  0.35604827624E+03  0.17300000000E+03 0.  1.
         -6    1    1    2    0  503 -0.44050752985E+02 -0.11541142342E+03 -0.14839774073E+03  0.25925114262E+03  0.17300000000E+03 0. -1.
<mgrwt>
<rscale>  2 0.21257767E+03</rscale>
<asrwt>0</asrwt>
<pdfrwt beam="1">  1       21 0.57886596E-01 0.21257767E+03</pdfrwt>
<pdfrwt beam="2">  1       21 0.36774853E-01 0.21257767E+03</pdfrwt>
<totfact> 0.19718390E+04</totfact>
</mgrwt>
</event>
<event>
 4    1  0.4263413E+000  0.2109791E+03  0.7546771E-02  0.1140793E+00
         21   -1    0    0  501  502  0.00000000000E+00  0.00000000000E+00  0.45369091297E+03  0.45369091297E+03  0.00000000000E+00 0. -1.
         21   -1    0    0  502  503 -0.00000000000E+00 -0.00000000000E+00 -0.10371714411E+03  0.10371714411E+03  0.00000000000E+00 0.  1.
          6    1    1    2  501    0 -0.19380183265E+01 -0.12074531592E+03  0.23978166442E+03  0.31938602635E+03  0.17300000000E+03 0. -1.
         -6    1    1    2    0  503  0.19380183265E+01  0.12074531592E+03  0.11019210444E+03  0.23802203073E+03  0.17300000000E+03 0.  1.
<mgrwt>
<rscale>  2 0.21097912E+03</rscale>
<asrwt>0</asrwt>
<pdfrwt beam="1">  1       21 0.69798601E-01 0.21097912E+03</pdfrwt>
<pdfrwt beam="2">  1       21 0.15956484E-01 0.21097912E+03</pdfrwt>
<totfact> 0.64796749E+04</totfact>
</mgrwt>
</event>
<event>
 4    1  0.4263413E+000  0.2308984E+03  0.7546771E-02  0.1126009E+00
         21   -1    0    0  503  502  0.00000000000E+00  0.00000000000E+00  0.57913637083E+02  0.57913637083E+02  0.00000000000E+00 0. -1.
         21   -1    0    0  501  503 -0.00000000000E+00 -0.00000000000E+00 -0.14650325876E+04  0.14650325876E+04  0.00000000000E+00 0. -1.
          6    1    1    2  501    0 -0.24323581714E+02 -0.15097500529E+03 -0.11677660512E+04  0.11903745794E+04  0.17300000000E+03 0. -1.
         -6    1    1    2    0  502  0.24323581714E+02  0.15097500529E+03 -0.23935289925E+03  0.33257164526E+03  0.17300000000E+03 0. -1.
<mgrwt>
<rscale>  2 0.23089844E+03</rscale>
<asrwt>0</asrwt>
<pdfrwt beam="1">  1       21 0.89097905E-02 0.23089844E+03</pdfrwt>
<pdfrwt beam="2">  1       21 0.22538963E+00 0.23089844E+03</pdfrwt>
<totfact> 0.89744328E+03</totfact>
</mgrwt>
</event>
<event>
 4    1  0.4263413E+000  0.1826746E+03  0.7546771E-02  0.1165239E+00
         21   -1    0    0  503  502  0.00000000000E+00  0.00000000000E+00  0.12370122359E+03  0.12370122359E+03  0.00000000000E+00 0.  1.
         21   -1    0    0  501  503 -0.00000000000E+00 -0.00000000000E+00 -0.27112978500E+03  0.27112978500E+03  0.00000000000E+00 0.  1.
          6    1    1    2  501    0  0.51891283979E+02  0.27354895213E+02 -0.59696951797E+02  0.19218148116E+03  0.17300000000E+03 0.  1.
         -6    1    1    2    0  502 -0.51891283979E+02 -0.27354895213E+02 -0.87731609618E+02  0.20264952744E+03  0.17300000000E+03 0.  1.
<mgrwt>
<rscale>  2 0.18267456E+03</rscale>
<asrwt>0</asrwt>
<pdfrwt beam="1">  1       21 0.19030958E-01 0.18267456E+03</pdfrwt>
<pdfrwt beam="2">  1       21 0.41712274E-01 0.18267456E+03</pdfrwt>
<totfact> 0.14056714E+05</totfact>
</mgrwt>
</event>
<event>
 4    1  0.4263413E+000  0.2295890E+03  0.7546771E-02  0.1126929E+00
         21   -1    0    0  503  502  0.00000000000E+00  0.00000000000E+00  0.21069983517E+03  0.21069983517E+03  0.00000000000E+00 0. -1.
         21   -1    0    0  501  503 -0.00000000000E+00 -0.00000000000E+00 -0.25430047855E+03  0.25430047855E+03  0.00000000000E+00 0.  1.
          6    1    1    2  501    0 -0.15035602786E+03 -0.13235352059E+02  0.78252690946E+01  0.22972232041E+03  0.17300000000E+03 0. -1.
         -6    1    1    2    0  502  0.15035602786E+03  0.13235352059E+02 -0.51425912473E+02  0.23527799330E+03  0.17300000000E+03 0.  1.
<mgrwt>
<rscale>  2 0.22958900E+03</rscale>
<asrwt>0</asrwt>
<pdfrwt beam="1">  1       21 0.32415359E-01 0.22958900E+03</pdfrwt>
<pdfrwt beam="2">  1       21 0.39123151E-01 0.22958900E+03</pdfrwt>
<totfact> 0.56732188E+04</totfact>
</mgrwt>
</event>
<event>
 4    1  0.4263413E+000  0.2186938E+03  0.7546771E-02  0.1134861E+00
         21   -1    0    0  503  502  0.00000000000E+00  0.00000000000E+00  0.13413545908E+04  0.13413545908E+04  0.00000000000E+00 0. -1.
         21   -1    0    0  501  503 -0.00000000000E+00 -0.00000000000E+00 -0.71939997622E+02  0.71939997622E+02  0.00000000000E+00 0. -1.
          6    1    1    2  501    0  0.24289909217E+02  0.13155974689E+03  0.13285407304E+03  0.25588507463E+03  0.17300000000E+03 0. -1.
         -6    1    1    2    0  502 -0.24289909217E+02 -0.13155974689E+03  0.11365605202E+04  0.11574095138E+04  0.17300000000E+03 0. -1.
<mgrwt>
<rscale>  2 0.21869377E+03</rscale>
<asrwt>0</asrwt>
<pdfrwt beam="1">  1       21 0.20636223E+00 0.21869377E+03</pdfrwt>
<pdfrwt beam="2">  1       21 0.11067693E-01 0.21869377E+03</pdfrwt>
<totfact> 0.81108125E+03</totfact>
</mgrwt>
</event>
<event>
 4    1  0.4263413E+000  0.2755036E+03  0.7546771E-02  0.1098170E+00
         21   -1    0    0  503  502  0.00000000000E+00  0.00000000000E+00  0.13230777860E+03  0.13230777860E+03  0.00000000000E+00 0.  1.
         21   -1    0    0  501  503 -0.00000000000E+00 -0.00000000000E+00 -0.60971463054E+03  0.60971463054E+03  0.00000000000E+00 0.  1.
          6    1    1    2  501    0 -0.20909221445E+03 -0.47472792003E+02 -0.32889969962E+03  0.42904222699E+03  0.17300000000E+03 0.  1.
         -6    1    1    2    0  502  0.20909221445E+03  0.47472792003E+02 -0.14850715232E+03  0.31298018215E+03  0.17300000000E+03 0.  1.
<mgrwt>
<rscale>  2 0.27550358E+03</rscale>
<asrwt>0</asrwt>
<pdfrwt beam="1">  1       21 0.20355043E-01 0.27550358E+03</pdfrwt>
<pdfrwt beam="2">  1       21 0.93802251E-01 0.27550358E+03</pdfrwt>
<totfact> 0.20399374E+04</totfact>
</mgrwt>
</event>
<event>
 4    1  0.4263413E+000  0.2116815E+03  0.7546771E-02  0.1140241E+00
         21   -1    0    0  503  502  0.00000000000E+00  0.00000000000E+00  0.17311816198E+04  0.17311816198E+04  0.00000000000E+00 0. -1.
         21   -1    0    0  501  503 -0.00000000000E+00 -0.00000000000E+00 -0.26563051124E+02  0.26563051124E+02  0.00000000000E+00 0. -1.
          6    1    1    2  501    0 -0.47760554617E+02  0.11224523689E+03  0.99287952655E+03  0.10151939805E+04  0.17300000000E+03 0. -1.
         -6    1    1    2    0  502  0.47760554617E+02 -0.11224523689E+03  0.71173904217E+03  0.74255069048E+03  0.17300000000E+03 0. -1.
<mgrwt>
<rscale>  2 0.21168151E+03</rscale>
<asrwt>0</asrwt>
<pdfrwt beam="1">  1       21 0.26633554E+00 0.21168151E+03</pdfrwt>
<pdfrwt beam="2">  1       21 0.40866246E-02 0.21168151E+03</pdfrwt>
<totfact> 0.19842406E+04</totfact>
</mgrwt>
</event>
<event>
 4    1  0.4263413E+000  0.1909536E+03  0.7546771E-02  0.1157604E+00
         21   -1    0    0  503  502  0.00000000000E+00  0.00000000000E+00  0.75495413152E+03  0.75495413152E+03  0.00000000000E+00 0.  1.
         21   -1    0    0  501  503 -0.00000000000E+00 -0.00000000000E+00 -0.11875333507E+03  0.11875333507E+03  0.00000000000E+00 0.  1.
          6    1    1    2  501    0  0.71573301279E+02  0.37570351388E+02 -0.18386430443E+02  0.19183672637E+03  0.17300000000E+03 0.  1.
         -6    1    1    2    0  502 -0.71573301279E+02 -0.37570351388E+02  0.65458722689E+03  0.68187074022E+03  0.17300000000E+03 0.  1.
<mgrwt>
<rscale>  2 0.19095358E+03</rscale>
<asrwt>0</asrwt>
<pdfrwt beam="1">  1       21 0.11614679E+00 0.19095358E+03</pdfrwt>
<pdfrwt beam="2">  1       21 0.18269744E-01 0.19095358E+03</pdfrwt>
<totfact> 0.15647794E+04</totfact>
</mgrwt>
</event>
<event>
 4    1  0.4263413E+000  0.2083368E+03  0.7546771E-02  0.1142890E+00
         21   -1    0    0  503  502  0.00000000000E+00  0.00000000000E+00  0.44624559879E+02  0.44624559879E+02  0.00000000000E+00 0.  1.
         21   -1    0    0  501  503 -0.00000000000E+00 -0.00000000000E+00 -0.98671733444E+03  0.98671733444E+03  0.00000000000E+00 0.  1.
          6    1    1    2  501    0 -0.11434199525E+03 -0.20027847188E+02 -0.53261193958E+03  0.57190880805E+03  0.17300000000E+03 0.  1.
         -6    1    1    2    0  502  0.11434199525E+03  0.20027847188E+02 -0.40948083498E+03  0.45943308627E+03  0.17300000000E+03 0.  1.
<mgrwt>
<rscale>  2 0.20833676E+03</rscale>
<asrwt>0</asrwt>
<pdfrwt beam="1">  1       21 0.68653173E-02 0.20833676E+03</pdfrwt>
<pdfrwt beam="2">  1       21 0.15180266E+00 0.20833676E+03</pdfrwt>
<totfact> 0.44896728E+04</totfact>
</mgrwt>
</event>
<event>
 4    1  0.4263413E+000  0.1779362E+03  0.7546771E-02  0.1169815E+00
         21   -1    0    0  501  502  0.00000000000E+00  0.00000000000E+00  0.43368462872E+03  0.43368462872E+03  0.00000000000E+00 0. -1.
         21   -1    0    0  502  503 -0.00000000000E+00 -0.00000000000E+00 -0.74985880832E+02  0.74985880832E+02  0.00000000000E+00 0. -1.
          6    1    1    2  501    0  0.27589119335E+02  0.31163109274E+02  0.13801537508E+03  0.22518779417E+03  0.17300000000E+03 0.  1.
         -6    1    1    2    0  503 -0.27589119335E+02 -0.31163109274E+02  0.22068337282E+03  0.28348271539E+03  0.17300000000E+03 0.  1.
<mgrwt>
<rscale>  2 0.17793622E+03</rscale>
<asrwt>0</asrwt>
<pdfrwt beam="1">  1       21 0.66720711E-01 0.17793622E+03</pdfrwt>
<pdfrwt beam="2">  1       21 0.11536290E-01 0.17793622E+03</pdfrwt>
<totfact> 0.13029920E+05</totfact>
</mgrwt>
</event>
<event>
 4    1  0.4263413E+000  0.1983191E+03  0.7546771E-02  0.1151165E+00
         21   -1    0    0  501  502  0.00000000000E+00  0.00000000000E+00  0.22548010985E+03  0.22548010985E+03  0.00000000000E+00 0. -1.
         21   -1    0    0  502  503 -0.00000000000E+00 -0.00000000000E+00 -0.23163273134E+03  0.23163273134E+03  0.00000000000E+00 0. -1.
          6    1    1    2  501    0 -0.61005818777E+02 -0.75364043128E+02  0.11050388953E+03  0.22702766026E+03  0.17300000000E+03 0. -1.
         -6    1    1    2    0  503  0.61005818777E+02  0.75364043128E+02 -0.11665651102E+03  0.23008518093E+03  0.17300000000E+03 0. -1.
<mgrwt>
<rscale>  2 0.19831906E+03</rscale>
<asrwt>0</asrwt>
<pdfrwt beam="1">  1       21 0.34689248E-01 0.19831906E+03</pdfrwt>
<pdfrwt beam="2">  1       21 0.35635805E-01 0.19831906E+03</pdfrwt>
<totfact> 0.60658649E+04</totfact>
</mgrwt>
</event>
<event>
 4    1  0.4263413E+000  0.1829952E+03  0.7546771E-02  0.1164935E+00
         21   -1    0    0  501  502  0.00000000000E+00  0.00000000000E+00  0.13731042945E+04  0.13731042945E+04  0.00000000000E+00 0. -1.
         21   -1    0    0  502  503 -0.00000000000E+00 -0.00000000000E+00 -0.26126746658E+02  0.26126746658E+02  0.00000000000E+00 0. -1.
          6    1    1    2  501    0 -0.59634126124E+02 -0.14145816739E+01  0.85397261823E+03  0.87335929761E+03  0.17300000000E+03 0. -1.
         -6    1    1    2    0  503  0.59634126124E+02  0.14145816739E+01  0.49300492964E+03  0.52587174358E+03  0.17300000000E+03 0. -1.
<mgrwt>
<rscale>  2 0.18299516E+03</rscale>
<asrwt>0</asrwt>
<pdfrwt beam="1">  1       21 0.21124676E+00 0.18299516E+03</pdfrwt>
<pdfrwt beam="2">  1       21 0.40195006E-02 0.18299516E+03</pdfrwt>
<totfact> 0.44597100E+04</totfact>
</mgrwt>
</event>
<event>
 4    1  0.4263413E+000  0.2112576E+03  0.7546771E-02  0.1140574E+00
         21   -1    0    0  503  502  0.00000000000E+00  0.00000000000E+00  0.28654010054E+02  0.28654010054E+02  0.00000000000E+00 0. -1.
         21   -1    0    0  501  503 -0.00000000000E+00 -0.00000000000E+00 -0.15726624659E+04  0.15726624659E+04  0.00000000000E+00 0. -1.
          6    1    1    2  501    0 -0.11015417388E+03  0.50663847056E+02 -0.69349143598E+03  0.72495526703E+03  0.17300000000E+03 0. -1.
         -6    1    1    2    0  502  0.11015417388E+03 -0.50663847056E+02 -0.85051701989E+03  0.87636120894E+03  0.17300000000E+03 0. -1.
<mgrwt>
<rscale>  2 0.21125759E+03</rscale>
<asrwt>0</asrwt>
<pdfrwt beam="1">  1       21 0.44083094E-02 0.21125759E+03</pdfrwt>
<pdfrwt beam="2">  1       21 0.24194806E+00 0.21125759E+03</pdfrwt>
<totfact> 0.24319138E+04</totfact>
</mgrwt>
</event>
<event>
 4    1  0.4263413E+000  0.1902304E+03  0.7546771E-02  0.1158254E+00
         21   -1    0    0  503  502  0.00000000000E+00  0.00000000000E+00  0.27128455798E+03  0.27128455798E+03  0.00000000000E+00 0. -1.
         21   -1    0    0  501  503 -0.00000000000E+00 -0.00000000000E+00 -0.14024477776E+03  0.14024477776E+03  0.00000000000E+00 0. -1.
          6    1    1    2  501    0  0.50539794540E+02  0.60863358905E+02  0.20040922154E+02  0.19128318758E+03  0.17300000000E+03 0. -1.
         -6    1    1    2    0  502 -0.50539794540E+02 -0.60863358905E+02  0.11099885807E+03  0.22024614817E+03  0.17300000000E+03 0. -1.
<mgrwt>
<rscale>  2 0.19023044E+03</rscale>
<asrwt>0</asrwt>
<pdfrwt beam="1">  1       21 0.41736086E-01 0.19023044E+03</pdfrwt>
<pdfrwt beam="2">  1       21 0.21576120E-01 0.19023044E+03</pdfrwt>
<totfact> 0.11076222E+05</totfact>
</mgrwt>
</event>
<event>
 4    1  0.4263413E+000  0.2190685E+03  0.7546771E-02  0.1134579E+00
         21   -1    0    0  501  502  0.00000000000E+00  0.00000000000E+00  0.78047464444E+03  0.78047464444E+03  0.00000000000E+00 0. -1.
         21   -1    0    0  502  503 -0.00000000000E+00 -0.00000000000E+00 -0.12349601600E+03  0.12349601600E+03  0.00000000000E+00 0.  1.
          6    1    1    2  501    0  0.11219996362E+03  0.73980895223E+02  0.64875948411E+03  0.68474803608E+03  0.17300000000E+03 0. -1.
         -6    1    1    2    0  503 -0.11219996362E+03 -0.73980895223E+02  0.82191443308E+01  0.21922262435E+03  0.17300000000E+03 0.  1.
<mgrwt>
<rscale>  2 0.21906849E+03</rscale>
<asrwt>0</asrwt>
<pdfrwt beam="1">  1       21 0.12007302E+00 0.21906849E+03</pdfrwt>
<pdfrwt beam="2">  1       21 0.18999388E-01 0.21906849E+03</pdfrwt>
<totfact> 0.13159293E+04</totfact>
</mgrwt>
</event>
<event>
 4    1  0.4263413E+000  0.3676628E+03  0.7546771E-02  0.1055590E+00
         21   -1    0    0  501  502  0.00000000000E+00  0.00000000000E+00  0.27864805984E+03  0.27864805984E+03  0.00000000000E+00 0. -1.
         21   -1    0    0  502  503 -0.00000000000E+00 -0.00000000000E+00 -0.64798799576E+03  0.64798799576E+03  0.00000000000E+00 0.  1.
          6    1    1    2  501    0  0.17153422311E+03  0.27535968492E+03  0.47615591655E+02  0.37073331432E+03  0.17300000000E+03 0. -1.
         -6    1    1    2    0  503 -0.17153422311E+03 -0.27535968492E+03 -0.41695552758E+03  0.55590274128E+03  0.17300000000E+03 0.  1.
<mgrwt>
<rscale>  2 0.36766282E+03</rscale>
<asrwt>0</asrwt>
<pdfrwt beam="1">  1       21 0.42868933E-01 0.36766282E+03</pdfrwt>
<pdfrwt beam="2">  1       21 0.99690460E-01 0.36766282E+03</pdfrwt>
<totfact> 0.39022062E+03</totfact>
</mgrwt>
</event>
<event>
 4    1  0.4263413E+000  0.2102619E+03  0.7546771E-02  0.1141359E+00
         21   -1    0    0  501  502  0.00000000000E+00  0.00000000000E+00  0.22446313211E+03  0.22446313211E+03  0.00000000000E+00 0.  1.
         21   -1    0    0  502  503 -0.00000000000E+00 -0.00000000000E+00 -0.25521580141E+03  0.25521580141E+03  0.00000000000E+00 0.  1.
          6    1    1    2  501    0  0.27673783319E+02 -0.11625494497E+03  0.99211869857E+02  0.23249310879E+03  0.17300000000E+03 0.  1.
         -6    1    1    2    0  503 -0.27673783319E+02  0.11625494497E+03 -0.12996453916E+03  0.24718582474E+03  0.17300000000E+03 0.  1.
<mgrwt>
<rscale>  2 0.21026186E+03</rscale>
<asrwt>0</asrwt>
<pdfrwt beam="1">  1       21 0.34532789E-01 0.21026186E+03</pdfrwt>
<pdfrwt beam="2">  1       21 0.39263970E-01 0.21026186E+03</pdfrwt>
<totfact> 0.50113591E+04</totfact>
</mgrwt>
</event>
<event>
 4    1  0.4263413E+000  0.1734403E+03  0.7546771E-02  0.1174307E+00
         21   -1    0    0  503  502  0.00000000000E+00  0.00000000000E+00  0.43862705970E+03  0.43862705970E+03  0.00000000000E+00 0.  1.
         21   -1    0    0  501  503 -0.00000000000E+00 -0.00000000000E+00 -0.71027873922E+02  0.71027873922E+02  0.00000000000E+00 0.  1.
          6    1    1    2  501    0 -0.57398528864E+01 -0.10935628351E+02  0.23109589715E+03  0.28894090669E+03  0.17300000000E+03 0.  1.
         -6    1    1    2    0  502  0.57398528864E+01  0.10935628351E+02  0.13650328863E+03  0.22071402693E+03  0.17300000000E+03 0.  1.
<mgrwt>
<rscale>  2 0.17344029E+03</rscale>
<asrwt>0</asrwt>
<pdfrwt beam="1">  1       21 0.67481085E-01 0.17344029E+03</pdfrwt>
<pdfrwt beam="2">  1       21 0.10927365E-01 0.17344029E+03</pdfrwt>
<totfact> 0.14019977E+05</totfact>
</mgrwt>
</event>
<event>
 4    1  0.4263413E+000  0.2508485E+03  0.7546771E-02  0.1112770E+00
         21   -1    0    0  503  502  0.00000000000E+00  0.00000000000E+00  0.29887316137E+03  0.29887316137E+03  0.00000000000E+00 0. -1.
         21   -1    0    0  501  503 -0.00000000000E+00 -0.00000000000E+00 -0.24367381439E+03  0.24367381439E+03  0.00000000000E+00 0. -1.
          6    1    1    2  501    0 -0.24535332401E+02  0.17998325489E+03 -0.72431248185E+02  0.26109622803E+03  0.17300000000E+03 0. -1.
         -6    1    1    2    0  502  0.24535332401E+02 -0.17998325489E+03  0.12763059516E+03  0.28145074773E+03  0.17300000000E+03 0. -1.
<mgrwt>
<rscale>  2 0.25084847E+03</rscale>
<asrwt>0</asrwt>
<pdfrwt beam="1">  1       21 0.45980486E-01 0.25084847E+03</pdfrwt>
<pdfrwt beam="2">  1       21 0.37488279E-01 0.25084847E+03</pdfrwt>
<totfact> 0.30219944E+04</totfact>
</mgrwt>
</event>
<event>
 4    1  0.4263413E+000  0.1931964E+03  0.7546771E-02  0.1155610E+00
         21   -1    0    0  501  502  0.00000000000E+00  0.00000000000E+00  0.69845885191E+02  0.69845885191E+02  0.00000000000E+00 0. -1.
         21   -1    0    0  502  503 -0.00000000000E+00 -0.00000000000E+00 -0.57167426998E+03  0.57167426998E+03  0.00000000000E+00 0. -1.
          6    1    1    2  501    0  0.63720202119E+02  0.57754501787E+02 -0.33283171503E+03  0.38483996305E+03  0.17300000000E+03 0. -1.
         -6    1    1    2    0  503 -0.63720202119E+02 -0.57754501787E+02 -0.16899666976E+03  0.25668019211E+03  0.17300000000E+03 0. -1.
<mgrwt>
<rscale>  2 0.19319639E+03</rscale>
<asrwt>0</asrwt>
<pdfrwt beam="1">  1       21 0.10745521E-01 0.19319639E+03</pdfrwt>
<pdfrwt beam="2">  1       21 0.87949890E-01 0.19319639E+03</pdfrwt>
<totfact> 0.79144963E+04</totfact>
</mgrwt>
</event>
<event>
 4    1  0.4263413E+000  0.2529507E+03  0.7546771E-02  0.1111454E+00
         21   -1    0    0  501  502  0.00000000000E+00  0.00000000000E+00  0.56492659285E+03  0.56492659285E+03  0.00000000000E+00 0.  1.
         21   -1    0    0  502  503 -0.00000000000E+00 -0.00000000000E+00 -0.23923971574E+03  0.23923971574E+03  0.00000000000E+00 0. -1.
          6    1    1    2  501    0  0.17208704728E+03  0.66641579570E+02  0.45461847327E+03  0.52025186997E+03  0.17300000000E+03 0.  1.
         -6    1    1    2    0  503 -0.17208704728E+03 -0.66641579570E+02 -0.12893159616E+03  0.28391443862E+03  0.17300000000E+03 0. -1.
<mgrwt>
<rscale>  2 0.25295069E+03</rscale>
<asrwt>0</asrwt>
<pdfrwt beam="1">  1       21 0.86911783E-01 0.25295069E+03</pdfrwt>
<pdfrwt beam="2">  1       21 0.36806110E-01 0.25295069E+03</pdfrwt>
<totfact> 0.77932677E+03</totfact>
</mgrwt>
</event>
<event>
 4    1  0.4263413E+000  0.1782099E+03  0.7546771E-02  0.1169547E+00
         21   -1    0    0  503  502  0.00000000000E+00  0.00000000000E+00  0.32804759393E+02  0.32804759393E+02  0.00000000000E+00 0. -1.
         21   -1    0    0  501  503 -0.00000000000E+00 -0.00000000000E+00 -0.98277971928E+03  0.98277971928E+03  0.00000000000E+00 0. -1.
          6    1    1    2  501    0  0.42772292695E+02  0.54187069174E+00 -0.53701758454E+03  0.56581503051E+03  0.17300000000E+03 0. -1.
         -6    1    1    2    0  502 -0.42772292695E+02 -0.54187069174E+00 -0.41295737534E+03  0.44976944816E+03  0.17300000000E+03 0. -1.
<mgrwt>
<rscale>  2 0.17820988E+03</rscale>
<asrwt>0</asrwt>
<pdfrwt beam="1">  1       21 0.50468863E-02 0.17820988E+03</pdfrwt>
<pdfrwt beam="2">  1       21 0.15119687E+00 0.17820988E+03</pdfrwt>
<totfact> 0.78072783E+04</totfact>
</mgrwt>
</event>
<event>
 4    1  0.4263413E+000  0.2379558E+03  0.7546771E-02  0.1121162E+00
         21   -1    0    0  501  502  0.00000000000E+00  0.00000000000E+00  0.42010332425E+03  0.42010332425E+03  0.00000000000E+00 0.  1.
         21   -1    0    0  502  503 -0.00000000000E+00 -0.00000000000E+00 -0.56898262320E+03  0.56898262320E+03  0.00000000000E+00 0.  1.
          6    1    1    2  501    0 -0.64988629514E+02 -0.14990137867E+03  0.35757558931E+03  0.42951513054E+03  0.17300000000E+03 0.  1.
         -6    1    1    2    0  503  0.64988629514E+02  0.14990137867E+03 -0.50645488826E+03  0.55957081691E+03  0.17300000000E+03 0.  1.
<mgrwt>
<rscale>  2 0.23795576E+03</rscale>
<asrwt>0</asrwt>
<pdfrwt beam="1">  1       21 0.64631281E-01 0.23795576E+03</pdfrwt>
<pdfrwt beam="2">  1       21 0.87535788E-01 0.23795576E+03</pdfrwt>
<totfact> 0.23821044E+03</totfact>
</mgrwt>
</event>
<event>
 4    1  0.4263413E+000  0.2035696E+03  0.7546771E-02  0.1146762E+00
         21   -1    0    0  501  502  0.00000000000E+00  0.00000000000E+00  0.49043565843E+03  0.49043565843E+03  0.00000000000E+00 0.  1.
         21   -1    0    0  502  503 -0.00000000000E+00 -0.00000000000E+00 -0.91556675737E+02  0.91556675737E+02  0.00000000000E+00 0.  1.
          6    1    1    2  501    0 -0.39701677825E+02 -0.99676359760E+02  0.28024081037E+03  0.34637481392E+03  0.17300000000E+03 0.  1.
         -6    1    1    2    0  503  0.39701677825E+02  0.99676359760E+02  0.11863817232E+03  0.23561752025E+03  0.17300000000E+03 0.  1.
<mgrwt>
<rscale>  2 0.20356964E+03</rscale>
<asrwt>0</asrwt>
<pdfrwt beam="1">  1       21 0.75451638E-01 0.20356964E+03</pdfrwt>
<pdfrwt beam="2">  1       21 0.14085643E-01 0.20356964E+03</pdfrwt>
<totfact> 0.68640874E+04</totfact>
</mgrwt>
</event>
<event>
 4    1  0.4263413E+000  0.1987403E+03  0.7546771E-02  0.1150806E+00
         21   -1    0    0  501  502  0.00000000000E+00  0.00000000000E+00  0.12247262794E+03  0.12247262794E+03  0.00000000000E+00 0.  1.
         21   -1    0    0  502  503 -0.00000000000E+00 -0.00000000000E+00 -0.45927771709E+03  0.45927771709E+03  0.00000000000E+00 0. -1.
          6    1    1    2  501    0  0.90897948895E+02 -0.36142343973E+02 -0.96674463764E+01  0.19897528907E+03  0.17300000000E+03 0.  1.
         -6    1    1    2    0  503 -0.90897948895E+02  0.36142343973E+02 -0.32713764277E+03  0.38277505595E+03  0.17300000000E+03 0. -1.
<mgrwt>
<rscale>  2 0.19874030E+03</rscale>
<asrwt>0</asrwt>
<pdfrwt beam="1">  1       21 0.18841943E-01 0.19874030E+03</pdfrwt>
<pdfrwt beam="2">  1       21 0.70658110E-01 0.19874030E+03</pdfrwt>
<totfact> 0.46677059E+04</totfact>
</mgrwt>
</event>
<event>
 4    1  0.4263413E+000  0.1998917E+03  0.7546771E-02  0.1149830E+00
         21   -1    0    0  501  502  0.00000000000E+00  0.00000000000E+00  0.31539161091E+04  0.31539161091E+04  0.00000000000E+00 0.  1.
         21   -1    0    0  502  503 -0.00000000000E+00 -0.00000000000E+00 -0.16185830191E+02  0.16185830191E+02  0.00000000000E+00 0.  1.
          6    1    1    2  501    0  0.90524318131E+02  0.42813786897E+02  0.23077165932E+04  0.23163576034E+04  0.17300000000E+03 0.  1.
         -6    1    1    2    0  503 -0.90524318131E+02 -0.42813786897E+02  0.83001368574E+03  0.85374433587E+03  0.17300000000E+03 0.  1.
<mgrwt>
<rscale>  2 0.19989165E+03</rscale>
<asrwt>0</asrwt>
<pdfrwt beam="1">  1       21 0.48521737E+00 0.19989165E+03</pdfrwt>
<pdfrwt beam="2">  1       21 0.24901302E-02 0.19989165E+03</pdfrwt>
<totfact> 0.20436325E+03</totfact>
</mgrwt>
</event>
<event>
 4    1  0.4263413E+000  0.1752026E+03  0.7546771E-02  0.1172528E+00
         21   -1    0    0  501  502  0.00000000000E+00  0.00000000000E+00  0.32919258774E+02  0.32919258774E+02  0.00000000000E+00 0.  1.
         21   -1    0    0  502  503 -0.00000000000E+00 -0.00000000000E+00 -0.96681654257E+03  0.96681654257E+03  0.00000000000E+00 0.  1.
          6    1    1    2  501    0 -0.23054668606E+02  0.15344125338E+02 -0.37272174177E+03  0.41184639942E+03  0.17300000000E+03 0.  1.
         -6    1    1    2    0  503  0.23054668606E+02 -0.15344125338E+02 -0.56117554202E+03  0.58788940192E+03  0.17300000000E+03 0.  1.
<mgrwt>
<rscale>  2 0.17520263E+03</rscale>
<asrwt>0</asrwt>
<pdfrwt beam="1">  1       21 0.50645023E-02 0.17520263E+03</pdfrwt>
<pdfrwt beam="2">  1       21 0.14874098E+00 0.17520263E+03</pdfrwt>
<totfact> 0.81147271E+04</totfact>
</mgrwt>
</event>
<event>
 4    1  0.4263413E+000  0.2304729E+03  0.7546771E-02  0.1126307E+00
         21   -1    0    0  501  502  0.00000000000E+00  0.00000000000E+00  0.30129919687E+03  0.30129919687E+03  0.00000000000E+00 0. -1.
         21   -1    0    0  502  503 -0.00000000000E+00 -0.00000000000E+00 -0.26266162031E+03  0.26266162031E+03  0.00000000000E+00 0.  1.
          6    1    1    2  501    0  0.74142752535E+01 -0.15209797751E+03  0.18101197359E+03  0.29305818676E+03  0.17300000000E+03 0. -1.
         -6    1    1    2    0  503 -0.74142752535E+01  0.15209797751E+03 -0.14237439704E+03  0.27090263043E+03  0.17300000000E+03 0.  1.
<mgrwt>
<rscale>  2 0.23047292E+03</rscale>
<asrwt>0</asrwt>
<pdfrwt beam="1">  1       21 0.46353723E-01 0.23047292E+03</pdfrwt>
<pdfrwt beam="2">  1       21 0.40409480E-01 0.23047292E+03</pdfrwt>
<totfact> 0.25775439E+04</totfact>
</mgrwt>
</event>
<event>
 4    1  0.4263413E+000  0.1773006E+03  0.7546771E-02  0.1170441E+00
         21   -1    0    0  501  502  0.00000000000E+00  0.00000000000E+00  0.17276143665E+03  0.17276143665E+03  0.00000000000E+00 0.  1.
         21   -1    0    0  502  503 -0.00000000000E+00 -0.00000000000E+00 -0.47065352354E+03  0.47065352354E+03  0.00000000000E+00 0.  1.
          6    1    1    2  501    0 -0.26291428192E+02  0.28552670877E+02  0.10301290785E+03  0.20505402555E+03  0.17300000000E+03 0.  1.
         -6    1    1    2    0  503  0.26291428192E+02 -0.28552670877E+02 -0.40090499474E+03  0.43836093464E+03  0.17300000000E+03 0.  1.
<mgrwt>
<rscale>  2 0.17730058E+03</rscale>
<asrwt>0</asrwt>
<pdfrwt beam="1">  1       21 0.26578683E-01 0.17730058E+03</pdfrwt>
<pdfrwt beam="2">  1       21 0.72408234E-01 0.17730058E+03</pdfrwt>
<totfact> 0.23369498E+04</totfact>
</mgrwt>
</event>
<event>
 4    1  0.4263413E+000  0.3616457E+03  0.7546771E-02  0.1057934E+00
         21   -1    0    0  503  502  0.00000000000E+00  0.00000000000E+00  0.21744463262E+03  0.21744463262E+03  0.00000000000E+00 0. -1.
         21   -1    0    0  501  503 -0.00000000000E+00 -0.00000000000E+00 -0.97465830785E+03  0.97465830785E+03  0.00000000000E+00 0. -1.
          6    1    1    2  501    0 -0.97584479932E+02  0.30221832295E+03 -0.74743010645E+03  0.83032488189E+03  0.17300000000E+03 0. -1.
         -6    1    1    2    0  502  0.97584479932E+02 -0.30221832295E+03 -0.97835687798E+01  0.36177805858E+03  0.17300000000E+03 0. -1.
<mgrwt>
<rscale>  2 0.36164575E+03</rscale>
<asrwt>0</asrwt>
<pdfrwt beam="1">  1       21 0.33453020E-01 0.36164575E+03</pdfrwt>
<pdfrwt beam="2">  1       21 0.14994743E+00 0.36164575E+03</pdfrwt>
<totfact> 0.22959682E+03</totfact>
</mgrwt>
</event>
<event>
 4    1  0.4263413E+000  0.1738951E+03  0.7546771E-02  0.1173846E+00
         21   -1    0    0  501  502  0.00000000000E+00  0.00000000000E+00  0.37835135771E+02  0.37835135771E+02  0.00000000000E+00 0.  1.
         21   -1    0    0  502  503 -0.00000000000E+00 -0.00000000000E+00 -0.12080349396E+04  0.12080349396E+04  0.00000000000E+00 0.  1.
          6    1    1    2  501    0 -0.41989968379E+01 -0.17113596354E+02 -0.22272874631E+03  0.28257317846E+03  0.17300000000E+03 0.  1.
         -6    1    1    2    0  503  0.41989968379E+01  0.17113596354E+02 -0.94747105754E+03  0.96329689693E+03  0.17300000000E+03 0.  1.
<mgrwt>
<rscale>  2 0.17389510E+03</rscale>
<asrwt>0</asrwt>
<pdfrwt beam="1">  1       21 0.58207906E-02 0.17389510E+03</pdfrwt>
<pdfrwt beam="2">  1       21 0.18585151E+00 0.17389510E+03</pdfrwt>
<totfact> 0.34952547E+04</totfact>
</mgrwt>
</event>
<event>
 4    1  0.4263413E+000  0.1730688E+03  0.7546771E-02  0.1174685E+00
         21   -1    0    0  503  502  0.00000000000E+00  0.00000000000E+00  0.14344555928E+03  0.14344555928E+03  0.00000000000E+00 0.  1.
         21   -1    0    0  501  503 -0.00000000000E+00 -0.00000000000E+00 -0.21905244999E+03  0.21905244999E+03  0.00000000000E+00 0.  1.
          6    1    1    2  501    0  0.52482094855E+00  0.48515201835E+01 -0.76996720897E+02  0.18942361974E+03  0.17300000000E+03 0. -1.
         -6    1    1    2    0  502 -0.52482094855E+00 -0.48515201835E+01  0.13898301891E+01  0.17307438954E+03  0.17300000000E+03 0. -1.
<mgrwt>
<rscale>  2 0.17306881E+03</rscale>
<asrwt>0</asrwt>
<pdfrwt beam="1">  1       21 0.22068548E-01 0.17306881E+03</pdfrwt>
<pdfrwt beam="2">  1       21 0.33700377E-01 0.17306881E+03</pdfrwt>
<totfact> 0.16376867E+05</totfact>
</mgrwt>
</event>
<event>
 4    1  0.4263413E+000  0.2558309E+03  0.7546771E-02  0.1109674E+00
         21   -1    0    0  503  502  0.00000000000E+00  0.00000000000E+00  0.85689522488E+03  0.85689522488E+03  0.00000000000E+00 0.  1.
         21   -1    0    0  501  503 -0.00000000000E+00 -0.00000000000E+00 -0.76417207755E+02  0.76417207755E+02  0.00000000000E+00 0.  1.
          6    1    1    2  501    0 -0.13513450258E+03 -0.13137392197E+03  0.40057102637E+03  0.47529631634E+03  0.17300000000E+03 0.  1.
         -6    1    1    2    0  502  0.13513450258E+03  0.13137392197E+03  0.37990699075E+03  0.45801611629E+03  0.17300000000E+03 0.  1.
<mgrwt>
<rscale>  2 0.25583088E+03</rscale>
<asrwt>0</asrwt>
<pdfrwt beam="1">  1       21 0.13183003E+00 0.25583088E+03</pdfrwt>
<pdfrwt beam="2">  1       21 0.11756494E-01 0.25583088E+03</pdfrwt>
<totfact> 0.24512623E+04</totfact>
</mgrwt>
</event>
<event>
 4    1  0.4263413E+000  0.2144300E+03  0.7546771E-02  0.1138105E+00
         21   -1    0    0  503  502  0.00000000000E+00  0.00000000000E+00  0.39844084647E+03  0.39844084647E+03  0.00000000000E+00 0.  1.
         21   -1    0    0  501  503 -0.00000000000E+00 -0.00000000000E+00 -0.50550990673E+03  0.50550990673E+03  0.00000000000E+00 0.  1.
          6    1    1    2  501    0 -0.31400066745E+02 -0.12274065757E+03 -0.45058270727E+03  0.49900401732E+03  0.17300000000E+03 0.  1.
         -6    1    1    2    0  502  0.31400066745E+02  0.12274065757E+03  0.34351364701E+03  0.40494673587E+03  0.17300000000E+03 0.  1.
<mgrwt>
<rscale>  2 0.21443002E+03</rscale>
<asrwt>0</asrwt>
<pdfrwt beam="1">  1       21 0.61298592E-01 0.21443002E+03</pdfrwt>
<pdfrwt beam="2">  1       21 0.77770755E-01 0.21443002E+03</pdfrwt>
<totfact> 0.35642363E+03</totfact>
</mgrwt>
</event>
<event>
 4    1  0.4263413E+000  0.3033883E+03  0.7546771E-02  0.1083559E+00
         21   -1    0    0  501  502  0.00000000000E+00  0.00000000000E+00  0.12011875776E+03  0.12011875776E+03  0.00000000000E+00 0.  1.
         21   -1    0    0  502  503 -0.00000000000E+00 -0.00000000000E+00 -0.82689016364E+03  0.82689016364E+03  0.00000000000E+00 0.  1.
          6    1    1    2  501    0  0.22131048375E+03  0.11461740277E+03 -0.48158231346E+03  0.56918011549E+03  0.17300000000E+03 0.  1.
         -6    1    1    2    0  503 -0.22131048375E+03 -0.11461740277E+03 -0.22518909241E+03  0.37782880591E+03  0.17300000000E+03 0.  1.
<mgrwt>
<rscale>  2 0.30338833E+03</rscale>
<asrwt>0</asrwt>
<pdfrwt beam="1">  1       21 0.18479809E-01 0.30338833E+03</pdfrwt>
<pdfrwt beam="2">  1       21 0.12721387E+00 0.30338833E+03</pdfrwt>
<totfact> 0.11449508E+04</totfact>
</mgrwt>
</event>
<event>
 4    1  0.4263413E+000  0.1737195E+03  0.7546771E-02  0.1174024E+00
         21   -1    0    0  503  502  0.00000000000E+00  0.00000000000E+00  0.83211147405E+03  0.83211147405E+03  0.00000000000E+00 0.  1.
         21   -1    0    0  501  503 -0.00000000000E+00 -0.00000000000E+00 -0.88442061464E+02  0.88442061464E+02  0.00000000000E+00 0.  1.
          6    1    1    2  501    0  0.65390869700E+01  0.14376935794E+02  0.18310004254E+02  0.17468174546E+03  0.17300000000E+03 0.  1.
         -6    1    1    2    0  502 -0.65390869700E+01 -0.14376935794E+02  0.72535940833E+03  0.74587179005E+03  0.17300000000E+03 0.  1.
<mgrwt>
<rscale>  2 0.17371947E+03</rscale>
<asrwt>0</asrwt>
<pdfrwt beam="1">  1       21 0.12801714E+00 0.17371947E+03</pdfrwt>
<pdfrwt beam="2">  1       21 0.13606472E-01 0.17371947E+03</pdfrwt>
<totfact> 0.21295753E+04</totfact>
</mgrwt>
</event>
<event>
 4    1  0.4263413E+000  0.1814591E+03  0.7546771E-02  0.1166398E+00
         21   -1    0    0  503  502  0.00000000000E+00  0.00000000000E+00  0.18376178524E+03  0.18376178524E+03  0.00000000000E+00 0.  1.
         21   -1    0    0  501  503 -0.00000000000E+00 -0.00000000000E+00 -0.34363780357E+03  0.34363780357E+03  0.00000000000E+00 0.  1.
          6    1    1    2  501    0  0.79119474266E+01  0.54183142916E+02 -0.26236099487E+03  0.31899953529E+03  0.17300000000E+03 0.  1.
         -6    1    1    2    0  502 -0.79119474266E+01 -0.54183142916E+02  0.10248497654E+03  0.20840005351E+03  0.17300000000E+03 0.  1.
<mgrwt>
<rscale>  2 0.18145912E+03</rscale>
<asrwt>0</asrwt>
<pdfrwt beam="1">  1       21 0.28271044E-01 0.18145912E+03</pdfrwt>
<pdfrwt beam="2">  1       21 0.52867354E-01 0.18145912E+03</pdfrwt>
<totfact> 0.40772185E+04</totfact>
</mgrwt>
</event>
<event>
 4    1  0.4263413E+000  0.2001800E+03  0.7546771E-02  0.1149587E+00
         21   -1    0    0  501  502  0.00000000000E+00  0.00000000000E+00  0.67324676477E+02  0.67324676477E+02  0.00000000000E+00 0. -1.
         21   -1    0    0  502  503 -0.00000000000E+00 -0.00000000000E+00 -0.67341481823E+03  0.67341481823E+03  0.00000000000E+00 0.  1.
          6    1    1    2  501    0 -0.70011498054E+02  0.72397563834E+02 -0.17682644540E+03  0.26709475641E+03  0.17300000000E+03 0. -1.
         -6    1    1    2    0  503  0.70011498054E+02 -0.72397563834E+02 -0.42926369635E+03  0.47364473829E+03  0.17300000000E+03 0.  1.
<mgrwt>
<rscale>  2 0.20017996E+03</rscale>
<asrwt>0</asrwt>
<pdfrwt beam="1">  1       21 0.10357642E-01 0.20017996E+03</pdfrwt>
<pdfrwt beam="2">  1       21 0.10360228E+00 0.20017996E+03</pdfrwt>
<totfact> 0.57315982E+04</totfact>
</mgrwt>
</event>
<event>
 4    1  0.4263413E+000  0.1823547E+03  0.7546771E-02  0.1165543E+00
         21   -1    0    0  501  502  0.00000000000E+00  0.00000000000E+00  0.90929982750E+02  0.90929982750E+02  0.00000000000E+00 0.  1.
         21   -1    0    0  502  503 -0.00000000000E+00 -0.00000000000E+00 -0.65562769126E+03  0.65562769126E+03  0.00000000000E+00 0.  1.
          6    1    1    2  501    0 -0.20004249031E+02  0.54074480499E+02 -0.34122124658E+02  0.18551964535E+03  0.17300000000E+03 0.  1.
         -6    1    1    2    0  503  0.20004249031E+02 -0.54074480499E+02 -0.53057558385E+03  0.56103802866E+03  0.17300000000E+03 0.  1.
<mgrwt>
<rscale>  2 0.18235465E+03</rscale>
<asrwt>0</asrwt>
<pdfrwt beam="1">  1       21 0.13989228E-01 0.18235465E+03</pdfrwt>
<pdfrwt beam="2">  1       21 0.10086580E+00 0.18235465E+03</pdfrwt>
<totfact> 0.36012167E+04</totfact>
</mgrwt>
</event>
<event>
 4    1  0.4263413E+000  0.2166744E+03  0.7546771E-02  0.1136387E+00
         21   -1    0    0  501  502  0.00000000000E+00  0.00000000000E+00  0.73368378839E+03  0.73368378839E+03  0.00000000000E+00 0.  1.
         21   -1    0    0  502  503 -0.00000000000E+00 -0.00000000000E+00 -0.64173074572E+02  0.64173074572E+02  0.00000000000E+00 0.  1.
          6    1    1    2  501    0  0.18902979226E+01  0.13044243649E+03  0.35611223046E+03  0.41684976089E+03  0.17300000000E+03 0.  1.
         -6    1    1    2    0  503 -0.18902979226E+01 -0.13044243649E+03  0.31339848336E+03  0.38100710208E+03  0.17300000000E+03 0.  1.
<mgrwt>
<rscale>  2 0.21667442E+03</rscale>
<asrwt>0</asrwt>
<pdfrwt beam="1">  1       21 0.11287442E+00 0.21667442E+03</pdfrwt>
<pdfrwt beam="2">  1       21 0.98727812E-02 0.21667442E+03</pdfrwt>
<totfact> 0.50298031E+04</totfact>
</mgrwt>
</event>
<event>
 4    1  0.4263413E+000  0.2237544E+03  0.7546771E-02  0.1131115E+00
         21   -1    0    0  503  502  0.00000000000E+00  0.00000000000E+00  0.15618300386E+03  0.15618300386E+03  0.00000000000E+00 0.  1.
         21   -1    0    0  501  503 -0.00000000000E+00 -0.00000000000E+00 -0.41843983321E+03  0.41843983321E+03  0.00000000000E+00 0.  1.
          6    1    1    2  501    0 -0.96077323745E+02 -0.10443275804E+03 -0.27008609936E+03  0.35073145590E+03  0.17300000000E+03 0.  1.
         -6    1    1    2    0  502  0.96077323745E+02  0.10443275804E+03  0.78292700068E+01  0.22389138116E+03  0.17300000000E+03 0.  1.
<mgrwt>
<rscale>  2 0.22375445E+03</rscale>
<asrwt>0</asrwt>
<pdfrwt beam="1">  1       21 0.24028155E-01 0.22375445E+03</pdfrwt>
<pdfrwt beam="2">  1       21 0.64375358E-01 0.22375445E+03</pdfrwt>
<totfact> 0.35782679E+04</totfact>
</mgrwt>
</event>
<event>
 4    1  0.4263413E+000  0.1820616E+03  0.7546771E-02  0.1165823E+00
         21   -1    0    0  503  502  0.00000000000E+00  0.00000000000E+00  0.75833870213E+02  0.75833870213E+02  0.00000000000E+00 0.  1.
         21   -1    0    0  501  503 -0.00000000000E+00 -0.00000000000E+00 -0.49852161030E+03  0.49852161030E+03  0.00000000000E+00 0.  1.
          6    1    1    2  501    0 -0.43484955742E+02  0.36421034017E+02 -0.11053584856E+03  0.21298968734E+03  0.17300000000E+03 0.  1.
         -6    1    1    2    0  502  0.43484955742E+02 -0.36421034017E+02 -0.31215189152E+03  0.36136579317E+03  0.17300000000E+03 0.  1.
<mgrwt>
<rscale>  2 0.18206162E+03</rscale>
<asrwt>0</asrwt>
<pdfrwt beam="1">  1       21 0.11666749E-01 0.18206162E+03</pdfrwt>
<pdfrwt beam="2">  1       21 0.76695634E-01 0.18206162E+03</pdfrwt>
<totfact> 0.93724636E+04</totfact>
</mgrwt>
</event>
<event>
 4    1  0.4263413E+000  0.2050622E+03  0.7546771E-02  0.1145537E+00
         21   -1    0    0  503  502  0.00000000000E+00  0.00000000000E+00  0.37322154642E+02  0.37322154642E+02  0.00000000000E+00 0.  1.
         21   -1    0    0  501  503 -0.00000000000E+00 -0.00000000000E+00 -0.11560171841E+04  0.11560171841E+04  0.00000000000E+00 0.  1.
          6    1    1    2  501    0 -0.10119006759E+03 -0.43382760184E+02 -0.65438346960E+03  0.68576105091E+03  0.17300000000E+03 0. -1.
         -6    1    1    2    0  502  0.10119006759E+03  0.43382760184E+02 -0.46431155984E+03  0.50757828781E+03  0.17300000000E+03 0. -1.
<mgrwt>
<rscale>  2 0.20506217E+03</rscale>
<asrwt>0</asrwt>
<pdfrwt beam="1">  1       21 0.57418706E-02 0.20506217E+03</pdfrwt>
<pdfrwt beam="2">  1       21 0.17784878E+00 0.20506217E+03</pdfrwt>
<totfact> 0.39696063E+04</totfact>
</mgrwt>
</event>
<event>
 4    1  0.4263413E+000  0.1138587E+04  0.7546771E-02  0.9168378E-01
         21   -1    0    0  503  502  0.00000000000E+00  0.00000000000E+00  0.22707021440E+04  0.22707021440E+04  0.00000000000E+00 0.  1.
         21   -1    0    0  501  503 -0.00000000000E+00 -0.00000000000E+00 -0.62554156168E+03  0.62554156168E+03  0.00000000000E+00 0. -1.
          6    1    1    2  501    0  0.10136518133E+04  0.48883651605E+03  0.12505125859E+04  0.16912013084E+04  0.17300000000E+03 0.  1.
         -6    1    1    2    0  502 -0.10136518133E+04 -0.48883651605E+03  0.39464799639E+03  0.12050423972E+04  0.17300000000E+03 0. -1.
<mgrwt>
<rscale>  2 0.11385869E+04</rscale>
<asrwt>0</asrwt>
<pdfrwt beam="1">  1       21 0.34933879E+00 0.11385869E+04</pdfrwt>
<pdfrwt beam="2">  1       21 0.96237164E-01 0.11385869E+04</pdfrwt>
<totfact> 0.84487871E+00</totfact>
</mgrwt>
</event>
<event>
 4    1  0.4263413E+000  0.2101515E+03  0.7546771E-02  0.1141446E+00
         21   -1    0    0  503  502  0.00000000000E+00  0.00000000000E+00  0.73722610639E+03  0.73722610639E+03  0.00000000000E+00 0. -1.
         21   -1    0    0  501  503 -0.00000000000E+00 -0.00000000000E+00 -0.68566135059E+02  0.68566135059E+02  0.00000000000E+00 0. -1.
          6    1    1    2  501    0 -0.93383455044E+00  0.11930536626E+03  0.19113697236E+03  0.28407214694E+03  0.17300000000E+03 0. -1.
         -6    1    1    2    0  502  0.93383455044E+00 -0.11930536626E+03  0.47752299897E+03  0.52172009451E+03  0.17300000000E+03 0. -1.
<mgrwt>
<rscale>  2 0.21015148E+03</rscale>
<asrwt>0</asrwt>
<pdfrwt beam="1">  1       21 0.11341940E+00 0.21015148E+03</pdfrwt>
<pdfrwt beam="2">  1       21 0.10548637E-01 0.21015148E+03</pdfrwt>
<totfact> 0.44349047E+04</totfact>
</mgrwt>
</event>
<event>
 4    1  0.4263413E+000  0.1820720E+03  0.7546771E-02  0.1165813E+00
         21   -1    0    0  503  502  0.00000000000E+00  0.00000000000E+00  0.28579388453E+03  0.28579388453E+03  0.00000000000E+00 0.  1.
         21   -1    0    0  501  503 -0.00000000000E+00 -0.00000000000E+00 -0.28124749736E+03  0.28124749736E+03  0.00000000000E+00 0.  1.
          6    1    1    2  501    0 -0.48464557590E+02  0.29536156908E+02 -0.21505525168E+03  0.28177820920E+03  0.17300000000E+03 0.  1.
         -6    1    1    2    0  502  0.48464557590E+02 -0.29536156908E+02  0.21960163884E+03  0.28526317268E+03  0.17300000000E+03 0.  1.
<mgrwt>
<rscale>  2 0.18207196E+03</rscale>
<asrwt>0</asrwt>
<pdfrwt beam="1">  1       21 0.43968290E-01 0.18207196E+03</pdfrwt>
<pdfrwt beam="2">  1       21 0.43268846E-01 0.18207196E+03</pdfrwt>
<totfact> 0.25669882E+04</totfact>
</mgrwt>
</event>
<event>
 4    1  0.4263413E+000  0.1809773E+03  0.7546771E-02  0.1166861E+00
         21   -1    0    0  503  502  0.00000000000E+00  0.00000000000E+00  0.11450676818E+03  0.11450676818E+03  0.00000000000E+00 0. -1.
         21   -1    0    0  501  503 -0.00000000000E+00 -0.00000000000E+00 -0.42917927110E+03  0.42917927110E+03  0.00000000000E+00 0. -1.
          6    1    1    2  501    0 -0.41079777944E+02 -0.33708063601E+02 -0.31433201925E+03  0.36270842288E+03  0.17300000000E+03 0. -1.
         -6    1    1    2    0  502  0.41079777944E+02  0.33708063601E+02 -0.34048367818E+00  0.18097761640E+03  0.17300000000E+03 0. -1.
<mgrwt>
<rscale>  2 0.18097730E+03</rscale>
<asrwt>0</asrwt>
<pdfrwt beam="1">  1       21 0.17616426E-01 0.18097730E+03</pdfrwt>
<pdfrwt beam="2">  1       21 0.66027579E-01 0.18097730E+03</pdfrwt>
<totfact> 0.61857256E+04</totfact>
</mgrwt>
</event>
<event>
 4    1  0.4263413E+000  0.1812436E+03  0.7546771E-02  0.1166605E+00
         21   -1    0    0  501  502  0.00000000000E+00  0.00000000000E+00  0.56344677386E+03  0.56344677386E+03  0.00000000000E+00 0.  1.
         21   -1    0    0  502  503 -0.00000000000E+00 -0.00000000000E+00 -0.93071630603E+02  0.93071630603E+02  0.00000000000E+00 0.  1.
          6    1    1    2  501    0  0.31066697579E+02  0.44216364951E+02  0.43582764443E+03  0.47201161244E+03  0.17300000000E+03 0.  1.
         -6    1    1    2    0  503 -0.31066697579E+02 -0.44216364951E+02  0.34547498828E+02  0.18450679202E+03  0.17300000000E+03 0.  1.
<mgrwt>
<rscale>  2 0.18124356E+03</rscale>
<asrwt>0</asrwt>
<pdfrwt beam="1">  1       21 0.86684117E-01 0.18124356E+03</pdfrwt>
<pdfrwt beam="2">  1       21 0.14318713E-01 0.18124356E+03</pdfrwt>
<totfact> 0.49173920E+04</totfact>
</mgrwt>
</event>
<event>
 4    1  0.4263413E+000  0.2934937E+03  0.7546771E-02  0.1088539E+00
         21   -1    0    0  503  502  0.00000000000E+00  0.00000000000E+00  0.78260389821E+02  0.78260389821E+02  0.00000000000E+00 0.  1.
         21   -1    0    0  501  503 -0.00000000000E+00 -0.00000000000E+00 -0.11246456968E+04  0.11246456968E+04  0.00000000000E+00 0. -1.
          6    1    1    2  501    0 -0.10815614123E+03 -0.21097820766E+03 -0.43536826078E+03  0.52505626127E+03  0.17300000000E+03 0.  1.
         -6    1    1    2    0  502  0.10815614123E+03  0.21097820766E+03 -0.61101704620E+03  0.67784982536E+03  0.17300000000E+03 0.  1.
<mgrwt>
<rscale>  2 0.29349371E+03</rscale>
<asrwt>0</asrwt>
<pdfrwt beam="1">  1       21 0.12040060E-01 0.29349371E+03</pdfrwt>
<pdfrwt beam="2">  1       21 0.17302241E+00 0.29349371E+03</pdfrwt>
<totfact> 0.11111559E+04</totfact>
</mgrwt>
</event>
<event>
 4    1  0.4263413E+000  0.1784101E+03  0.7546771E-02  0.1169351E+00
         21   -1    0    0  503  502  0.00000000000E+00  0.00000000000E+00  0.11421730608E+04  0.11421730608E+04  0.00000000000E+00 0.  1.
         21   -1    0    0  501  503 -0.00000000000E+00 -0.00000000000E+00 -0.66682092041E+02  0.66682092041E+02  0.00000000000E+00 0.  1.
          6    1    1    2  501    0  0.38115696640E+01  0.43435460353E+02  0.76604263907E+02  0.19416070799E+03  0.17300000000E+03 0.  1.
         -6    1    1    2    0  502 -0.38115696640E+01 -0.43435460353E+02  0.99888670489E+03  0.10146944449E+04  0.17300000000E+03 0.  1.
<mgrwt>
<rscale>  2 0.17841011E+03</rscale>
<asrwt>0</asrwt>
<pdfrwt beam="1">  1       21 0.17571892E+00 0.17841011E+03</pdfrwt>
<pdfrwt beam="2">  1       21 0.10258784E-01 0.17841011E+03</pdfrwt>
<totfact> 0.15263990E+04</totfact>
</mgrwt>
</event>
<event>
 4    1  0.4263413E+000  0.1966545E+03  0.7546771E-02  0.1152593E+00
         21   -1    0    0  503  502  0.00000000000E+00  0.00000000000E+00  0.94011604753E+02  0.94011604753E+02  0.00000000000E+00 0. -1.
         21   -1    0    0  501  503 -0.00000000000E+00 -0.00000000000E+00 -0.17883767262E+04  0.17883767262E+04  0.00000000000E+00 0. -1.
          6    1    1    2  501    0 -0.11522306560E+02  0.92796607744E+02 -0.16730659381E+04  0.16845838083E+04  0.17300000000E+03 0. -1.
         -6    1    1    2    0  502  0.11522306560E+02 -0.92796607744E+02 -0.21299183309E+02  0.19780452261E+03  0.17300000000E+03 0. -1.
<mgrwt>
<rscale>  2 0.19665445E+03</rscale>
<asrwt>0</asrwt>
<pdfrwt beam="1">  1       21 0.14463323E-01 0.19665445E+03</pdfrwt>
<pdfrwt beam="2">  1       21 0.27513489E+00 0.19665445E+03</pdfrwt>
<totfact> 0.19802997E+03</totfact>
</mgrwt>
</event>
<event>
 4    1  0.4263413E+000  0.1786004E+03  0.7546771E-02  0.1169164E+00
         21   -1    0    0  501  502  0.00000000000E+00  0.00000000000E+00  0.12083970983E+03  0.12083970983E+03  0.00000000000E+00 0.  1.
         21   -1    0    0  502  503 -0.00000000000E+00 -0.00000000000E+00 -0.69909390349E+03  0.69909390349E+03  0.00000000000E+00 0.  1.
          6    1    1    2  501    0 -0.27784002958E+02  0.34600013175E+02  0.34308031970E+02  0.18186575486E+03  0.17300000000E+03 0.  1.
         -6    1    1    2    0  503  0.27784002958E+02 -0.34600013175E+02 -0.61256222564E+03  0.63806785847E+03  0.17300000000E+03 0.  1.
<mgrwt>
<rscale>  2 0.17860042E+03</rscale>
<asrwt>0</asrwt>
<pdfrwt beam="1">  1       21 0.18590725E-01 0.17860042E+03</pdfrwt>
<pdfrwt beam="2">  1       21 0.10755291E+00 0.17860042E+03</pdfrwt>
<totfact> 0.18401286E+04</totfact>
</mgrwt>
</event>
<event>
 4    1  0.4263413E+000  0.2688248E+03  0.7546771E-02  0.1101954E+00
         21   -1    0    0  501  502  0.00000000000E+00  0.00000000000E+00  0.22306604031E+03  0.22306604031E+03  0.00000000000E+00 0. -1.
         21   -1    0    0  502  503 -0.00000000000E+00 -0.00000000000E+00 -0.38777160511E+03  0.38777160511E+03  0.00000000000E+00 0.  1.
          6    1    1    2  501    0 -0.20569210711E+03  0.53419878230E+01  0.41533282840E+02  0.27201432562E+03  0.17300000000E+03 0.  1.
         -6    1    1    2    0  503  0.20569210711E+03 -0.53419878230E+01 -0.20623884764E+03  0.33882331979E+03  0.17300000000E+03 0.  1.
<mgrwt>
<rscale>  2 0.26882481E+03</rscale>
<asrwt>0</asrwt>
<pdfrwt beam="1">  1       21 0.34317852E-01 0.26882481E+03</pdfrwt>
<pdfrwt beam="2">  1       21 0.59657170E-01 0.26882481E+03</pdfrwt>
<totfact> 0.20628394E+04</totfact>
</mgrwt>
</event>
<event>
 4    1  0.4263413E+000  0.2144676E+03  0.7546771E-02  0.1138076E+00
         21   -1    0    0  501  502  0.00000000000E+00  0.00000000000E+00  0.13316048696E+04  0.13316048696E+04  0.00000000000E+00 0. -1.
         21   -1    0    0  502  503 -0.00000000000E+00 -0.00000000000E+00 -0.56058768607E+02  0.56058768607E+02  0.00000000000E+00 0. -1.
          6    1    1    2  501    0  0.93623819923E+02 -0.85451228268E+02  0.10676267637E+04  0.10889551132E+04  0.17300000000E+03 0. -1.
         -6    1    1    2    0  503 -0.93623819923E+02  0.85451228268E+02  0.20791933728E+03  0.29870852496E+03  0.17300000000E+03 0. -1.
<mgrwt>
<rscale>  2 0.21446755E+03</rscale>
<asrwt>0</asrwt>
<pdfrwt beam="1">  1       21 0.20486226E+00 0.21446755E+03</pdfrwt>
<pdfrwt beam="2">  1       21 0.86244269E-02 0.21446755E+03</pdfrwt>
<totfact> 0.12931225E+04</totfact>
</mgrwt>
</event>
<event>
 4    1  0.4263413E+000  0.2786830E+03  0.7546771E-02  0.1096410E+00
         21   -1    0    0  503  502  0.00000000000E+00  0.00000000000E+00  0.25304368078E+04  0.25304368078E+04  0.00000000000E+00 0.  1.
         21   -1    0    0  501  503 -0.00000000000E+00 -0.00000000000E+00 -0.32624838777E+02  0.32624838777E+02  0.00000000000E+00 0. -1.
          6    1    1    2  501    0  0.21476100136E+03 -0.40161036315E+02  0.93698014655E+03  0.97754590254E+03  0.17300000000E+03 0. -1.
         -6    1    1    2    0  502 -0.21476100136E+03  0.40161036315E+02  0.15608318225E+04  0.15855157441E+04  0.17300000000E+03 0.  1.
<mgrwt>
<rscale>  2 0.27868297E+03</rscale>
<asrwt>0</asrwt>
<pdfrwt beam="1">  1       21 0.38929781E+00 0.27868297E+03</pdfrwt>
<pdfrwt beam="2">  1       21 0.50192080E-02 0.27868297E+03</pdfrwt>
<totfact> 0.24508494E+03</totfact>
</mgrwt>
</event>
<event>
 4    1  0.4263413E+000  0.1731788E+03  0.7546771E-02  0.1174573E+00
         21   -1    0    0  503  502  0.00000000000E+00  0.00000000000E+00  0.33356689120E+03  0.33356689120E+03  0.00000000000E+00 0. -1.
         21   -1    0    0  501  503 -0.00000000000E+00 -0.00000000000E+00 -0.10538894484E+03  0.10538894484E+03  0.00000000000E+00 0. -1.
          6    1    1    2  501    0 -0.76037218779E+01 -0.20193802959E+01  0.29974954357E+02  0.17575378338E+03  0.17300000000E+03 0. -1.
         -6    1    1    2    0  502  0.76037218779E+01  0.20193802959E+01  0.19820299201E+03  0.26320205266E+03  0.17300000000E+03 0. -1.
<mgrwt>
<rscale>  2 0.17317879E+03</rscale>
<asrwt>0</asrwt>
<pdfrwt beam="1">  1       21 0.51317983E-01 0.17317879E+03</pdfrwt>
<pdfrwt beam="2">  1       21 0.16213684E-01 0.17317879E+03</pdfrwt>
<totfact> 0.12366770E+05</totfact>
</mgrwt>
</event>
<event>
 4    1  0.4263413E+000  0.2140498E+03  0.7546771E-02  0.1138398E+00
         21   -1    0    0  501  502  0.00000000000E+00  0.00000000000E+00  0.51606846432E+02  0.51606846432E+02  0.00000000000E+00 0. -1.
         21   -1    0    0  502  503 -0.00000000000E+00 -0.00000000000E+00 -0.97358736629E+03  0.97358736629E+03  0.00000000000E+00 0. -1.
          6    1    1    2  501    0 -0.83199652879E+01  0.12577405608E+03 -0.61313685992E+03  0.64942601118E+03  0.17300000000E+03 0. -1.
         -6    1    1    2    0  503  0.83199652879E+01 -0.12577405608E+03 -0.30884365994E+03  0.37576820154E+03  0.17300000000E+03 0. -1.
<mgrwt>
<rscale>  2 0.21404984E+03</rscale>
<asrwt>0</asrwt>
<pdfrwt beam="1">  1       21 0.79395153E-02 0.21404984E+03</pdfrwt>
<pdfrwt beam="2">  1       21 0.14978266E+00 0.21404984E+03</pdfrwt>
<totfact> 0.36023654E+04</totfact>
</mgrwt>
</event>
<event>
 4    1  0.4263413E+000  0.2065146E+03  0.7546771E-02  0.1144356E+00
         21   -1    0    0  501  502  0.00000000000E+00  0.00000000000E+00  0.98286399349E+02  0.98286399349E+02  0.00000000000E+00 0. -1.
         21   -1    0    0  502  503 -0.00000000000E+00 -0.00000000000E+00 -0.47347928699E+03  0.47347928699E+03  0.00000000000E+00 0.  1.
          6    1    1    2  501    0  0.10934126796E+03 -0.27635963743E+02 -0.10496000314E+03  0.23165677549E+03  0.17300000000E+03 0. -1.
         -6    1    1    2    0  503 -0.10934126796E+03  0.27635963743E+02 -0.27023288451E+03  0.34010891085E+03  0.17300000000E+03 0.  1.
<mgrwt>
<rscale>  2 0.20651455E+03</rscale>
<asrwt>0</asrwt>
<pdfrwt beam="1">  1       21 0.15120985E-01 0.20651455E+03</pdfrwt>
<pdfrwt beam="2">  1       21 0.72842965E-01 0.20651455E+03</pdfrwt>
<totfact> 0.65170855E+04</totfact>
</mgrwt>
</event>
<event>
 4    1  0.4263413E+000  0.2096426E+03  0.7546771E-02  0.1141849E+00
         21   -1    0    0  501  502  0.00000000000E+00  0.00000000000E+00  0.86512650835E+02  0.86512650835E+02  0.00000000000E+00 0. -1.
         21   -1    0    0  502  503 -0.00000000000E+00 -0.00000000000E+00 -0.80774739756E+03  0.80774739756E+03  0.00000000000E+00 0.  1.
          6    1    1    2  501    0  0.82653775417E+02 -0.84790169273E+02 -0.88246651292E+02  0.22745876738E+03  0.17300000000E+03 0. -1.
         -6    1    1    2    0  503 -0.82653775417E+02  0.84790169273E+02 -0.63298809544E+03  0.66680128101E+03  0.17300000000E+03 0.  1.
<mgrwt>
<rscale>  2 0.20964260E+03</rscale>
<asrwt>0</asrwt>
<pdfrwt beam="1">  1       21 0.13309639E-01 0.20964260E+03</pdfrwt>
<pdfrwt beam="2">  1       21 0.12426883E+00 0.20964260E+03</pdfrwt>
<totfact> 0.23337727E+04</totfact>
</mgrwt>
</event>
<event>
 4    1  0.4263413E+000  0.2190369E+03  0.7546771E-02  0.1134603E+00
         21   -1    0    0  501  502  0.00000000000E+00  0.00000000000E+00  0.56784544224E+03  0.56784544224E+03  0.00000000000E+00 0.  1.
         21   -1    0    0  502  503 -0.00000000000E+00 -0.00000000000E+00 -0.97505892238E+02  0.97505892238E+02  0.00000000000E+00 0.  1.
          6    1    1    2  501    0  0.12076956131E+03  0.58846191523E+02  0.35671713287E+03  0.41859798623E+03  0.17300000000E+03 0.  1.
         -6    1    1    2    0  503 -0.12076956131E+03 -0.58846191523E+02  0.11362241714E+03  0.24675334825E+03  0.17300000000E+03 0.  1.
<mgrwt>
<rscale>  2 0.21903689E+03</rscale>
<asrwt>0</asrwt>
<pdfrwt beam="1">  1       21 0.87360835E-01 0.21903689E+03</pdfrwt>
<pdfrwt beam="2">  1       21 0.15000907E-01 0.21903689E+03</pdfrwt>
<totfact> 0.43551864E+04</totfact>
</mgrwt>
</event>
<event>
 4    1  0.4263413E+000  0.2091151E+03  0.7546771E-02  0.1142269E+00
         21   -1    0    0  503  502  0.00000000000E+00  0.00000000000E+00  0.11720416250E+03  0.11720416250E+03  0.00000000000E+00 0. -1.
         21   -1    0    0  501  503 -0.00000000000E+00 -0.00000000000E+00 -0.37436390908E+03  0.37436390908E+03  0.00000000000E+00 0. -1.
          6    1    1    2  501    0  0.23130050291E+02 -0.11517435236E+03 -0.11431110103E+03  0.23831944630E+03  0.17300000000E+03 0. -1.
         -6    1    1    2    0  502 -0.23130050291E+02  0.11517435236E+03 -0.14284864555E+03  0.25324862527E+03  0.17300000000E+03 0. -1.
<mgrwt>
<rscale>  2 0.20911511E+03</rscale>
<asrwt>0</asrwt>
<pdfrwt beam="1">  1       21 0.18031410E-01 0.20911511E+03</pdfrwt>
<pdfrwt beam="2">  1       21 0.57594447E-01 0.20911511E+03</pdfrwt>
<totfact> 0.78589554E+04</totfact>
</mgrwt>
</event>
<event>
 4    1  0.4263413E+000  0.1838077E+03  0.7546771E-02  0.1164168E+00
         21   -1    0    0  501  502  0.00000000000E+00  0.00000000000E+00  0.51784776919E+03  0.51784776919E+03  0.00000000000E+00 0. -1.
         21   -1    0    0  502  503 -0.00000000000E+00 -0.00000000000E+00 -0.11732993298E+03  0.11732993298E+03  0.00000000000E+00 0. -1.
          6    1    1    2  501    0  0.47962786264E+02 -0.39444262430E+02  0.41186618095E+03  0.45101998815E+03  0.17300000000E+03 0. -1.
         -6    1    1    2    0  503 -0.47962786264E+02  0.39444262430E+02 -0.11348344731E+02  0.18415771402E+03  0.17300000000E+03 0. -1.
<mgrwt>
<rscale>  2 0.18380772E+03</rscale>
<asrwt>0</asrwt>
<pdfrwt beam="1">  1       21 0.79668886E-01 0.18380772E+03</pdfrwt>
<pdfrwt beam="2">  1       21 0.18050759E-01 0.18380772E+03</pdfrwt>
<totfact> 0.38951689E+04</totfact>
</mgrwt>
</event>
<event>
 4    1  0.4263413E+000  0.1894148E+03  0.7546771E-02  0.1158990E+00
         21   -1    0    0  501  502  0.00000000000E+00  0.00000000000E+00  0.75029230725E+03  0.75029230725E+03  0.00000000000E+00 0.  1.
         21   -1    0    0  502  503 -0.00000000000E+00 -0.00000000000E+00 -0.95002064876E+02  0.95002064876E+02  0.00000000000E+00 0.  1.
          6    1    1    2  501    0 -0.31900514940E+02  0.70223357796E+02  0.62550098814E+03  0.65355141267E+03  0.17300000000E+03 0.  1.
         -6    1    1    2    0  503  0.31900514940E+02 -0.70223357796E+02  0.29789254231E+02  0.19174295946E+03  0.17300000000E+03 0.  1.
<mgrwt>
<rscale>  2 0.18941479E+03</rscale>
<asrwt>0</asrwt>
<pdfrwt beam="1">  1       21 0.11542958E+00 0.18941479E+03</pdfrwt>
<pdfrwt beam="2">  1       21 0.14615703E-01 0.18941479E+03</pdfrwt>
<totfact> 0.23938628E+04</totfact>
</mgrwt>
</event>
<event>
 4    1  0.4263413E+000  0.1873476E+03  0.7546771E-02  0.1160876E+00
         21   -1    0    0  503  502  0.00000000000E+00  0.00000000000E+00  0.19375183295E+03  0.19375183295E+03  0.00000000000E+00 0. -1.
         21   -1    0    0  501  503 -0.00000000000E+00 -0.00000000000E+00 -0.18665246655E+03  0.18665246655E+03  0.00000000000E+00 0. -1.
          6    1    1    2  501    0 -0.66025022112E+02  0.28475083437E+02 -0.29092233156E+02  0.18959296388E+03  0.17300000000E+03 0.  1.
         -6    1    1    2    0  502  0.66025022112E+02 -0.28475083437E+02  0.36191599559E+02  0.19081133562E+03  0.17300000000E+03 0.  1.
<mgrwt>
<rscale>  2 0.18734763E+03</rscale>
<asrwt>0</asrwt>
<pdfrwt beam="1">  1       21 0.29807974E-01 0.18734763E+03</pdfrwt>
<pdfrwt beam="2">  1       21 0.28715764E-01 0.18734763E+03</pdfrwt>
<totfact> 0.12542184E+05</totfact>
</mgrwt>
</event>
<event>
 4    1  0.4263413E+000  0.2614236E+03  0.7546771E-02  0.1106291E+00
         21   -1    0    0  501  502  0.00000000000E+00  0.00000000000E+00  0.48476472907E+02  0.48476472907E+02  0.00000000000E+00 0. -1.
         21   -1    0    0  502  503 -0.00000000000E+00 -0.00000000000E+00 -0.14547697953E+04  0.14547697953E+04  0.00000000000E+00 0.  1.
          6    1    1    2  501    0  0.19087801270E+03 -0.44484811234E+02 -0.57100332686E+03  0.62800247885E+03  0.17300000000E+03 0.  1.
         -6    1    1    2    0  503 -0.19087801270E+03  0.44484811234E+02 -0.83528999550E+03  0.87524378932E+03  0.17300000000E+03 0.  1.
<mgrwt>
<rscale>  2 0.26142363E+03</rscale>
<asrwt>0</asrwt>
<pdfrwt beam="1">  1       21 0.74579183E-02 0.26142363E+03</pdfrwt>
<pdfrwt beam="2">  1       21 0.22381076E+00 0.26142363E+03</pdfrwt>
<totfact> 0.12266524E+04</totfact>
</mgrwt>
</event>
<event>
 4    1  0.4263413E+000  0.2499615E+03  0.7546771E-02  0.1113329E+00
         21   -1    0    0  501  502  0.00000000000E+00  0.00000000000E+00  0.35089693191E+02  0.35089693191E+02  0.00000000000E+00 0.  1.
         21   -1    0    0  502  503 -0.00000000000E+00 -0.00000000000E+00 -0.18244735080E+04  0.18244735080E+04  0.00000000000E+00 0.  1.
          6    1    1    2  501    0  0.16448411160E+03  0.74140021051E+02 -0.10388719559E+04  0.10685203350E+04  0.17300000000E+03 0.  1.
         -6    1    1    2    0  503 -0.16448411160E+03 -0.74140021051E+02 -0.75051185896E+03  0.79104286617E+03  0.17300000000E+03 0.  1.
<mgrwt>
<rscale>  2 0.24996153E+03</rscale>
<asrwt>0</asrwt>
<pdfrwt beam="1">  1       21 0.53984129E-02 0.24996153E+03</pdfrwt>
<pdfrwt beam="2">  1       21 0.28068830E+00 0.24996153E+03</pdfrwt>
<totfact> 0.98811407E+03</totfact>
</mgrwt>
</event>
<event>
 4    1  0.4263413E+000  0.2534096E+03  0.7546771E-02  0.1111169E+00
         21   -1    0    0  501  502  0.00000000000E+00  0.00000000000E+00  0.94830154357E+02  0.94830154357E+02  0.00000000000E+00 0. -1.
         21   -1    0    0  502  503 -0.00000000000E+00 -0.00000000000E+00 -0.76919652614E+03  0.76919652614E+03  0.00000000000E+00 0. -1.
          6    1    1    2  501    0 -0.16385926538E+03 -0.86241237611E+02 -0.18775649130E+03  0.31538692100E+03  0.17300000000E+03 0. -1.
         -6    1    1    2    0  503  0.16385926538E+03  0.86241237611E+02 -0.48660988048E+03  0.54863975950E+03  0.17300000000E+03 0. -1.
<mgrwt>
<rscale>  2 0.25340957E+03</rscale>
<asrwt>0</asrwt>
<pdfrwt beam="1">  1       21 0.14589254E-01 0.25340957E+03</pdfrwt>
<pdfrwt beam="2">  1       21 0.11833793E+00 0.25340957E+03</pdfrwt>
<totfact> 0.21794812E+04</totfact>
</mgrwt>
</event>
<event>
 4    1  0.4263413E+000  0.1990741E+03  0.7546771E-02  0.1150523E+00
         21   -1    0    0  503  502  0.00000000000E+00  0.00000000000E+00  0.10239940417E+03  0.10239940417E+03  0.00000000000E+00 0.  1.
         21   -1    0    0  501  503 -0.00000000000E+00 -0.00000000000E+00 -0.82417454816E+03  0.82417454816E+03  0.00000000000E+00 0. -1.
          6    1    1    2  501    0  0.95290072955E+02  0.24925739828E+02 -0.69829808359E+03  0.72612030963E+03  0.17300000000E+03 0. -1.
         -6    1    1    2    0  502 -0.95290072955E+02 -0.24925739828E+02 -0.23477060398E+02  0.20045364271E+03  0.17300000000E+03 0.  1.
<mgrwt>
<rscale>  2 0.19907408E+03</rscale>
<asrwt>0</asrwt>
<pdfrwt beam="1">  1       21 0.15753755E-01 0.19907408E+03</pdfrwt>
<pdfrwt beam="2">  1       21 0.12679608E+00 0.19907408E+03</pdfrwt>
<totfact> 0.16439661E+04</totfact>
</mgrwt>
</event>
<event>
 4    1  0.4263413E+000  0.1807679E+03  0.7546771E-02  0.1167062E+00
         21   -1    0    0  501  502  0.00000000000E+00  0.00000000000E+00  0.44607640924E+03  0.44607640924E+03  0.00000000000E+00 0.  1.
         21   -1    0    0  502  503 -0.00000000000E+00 -0.00000000000E+00 -0.73389032790E+02  0.73389032790E+02  0.00000000000E+00 0.  1.
          6    1    1    2  501    0  0.40796687357E+02 -0.32919056233E+02  0.17521664968E+03  0.25174969372E+03  0.17300000000E+03 0.  1.
         -6    1    1    2    0  503 -0.40796687357E+02  0.32919056233E+02  0.19747072677E+03  0.26771574831E+03  0.17300000000E+03 0.  1.
<mgrwt>
<rscale>  2 0.18076790E+03</rscale>
<asrwt>0</asrwt>
<pdfrwt beam="1">  1       21 0.68627138E-01 0.18076790E+03</pdfrwt>
<pdfrwt beam="2">  1       21 0.11290621E-01 0.18076790E+03</pdfrwt>
<totfact> 0.12716573E+05</totfact>
</mgrwt>
</event>
<event>
 4    1  0.4263413E+000  0.1960332E+03  0.7546771E-02  0.1153130E+00
         21   -1    0    0  501  502  0.00000000000E+00  0.00000000000E+00  0.70221940588E+02  0.70221940588E+02  0.00000000000E+00 0.  1.
         21   -1    0    0  502  503 -0.00000000000E+00 -0.00000000000E+00 -0.87840891078E+03  0.87840891078E+03  0.00000000000E+00 0.  1.
          6    1    1    2  501    0  0.63910127705E+02  0.66449457321E+02 -0.11286330501E+03  0.22620159243E+03  0.17300000000E+03 0.  1.
         -6    1    1    2    0  503 -0.63910127705E+02 -0.66449457321E+02 -0.69532366518E+03  0.72242925893E+03  0.17300000000E+03 0.  1.
<mgrwt>
<rscale>  2 0.19603325E+03</rscale>
<asrwt>0</asrwt>
<pdfrwt beam="1">  1       21 0.10803375E-01 0.19603325E+03</pdfrwt>
<pdfrwt beam="2">  1       21 0.13513984E+00 0.19603325E+03</pdfrwt>
<totfact> 0.27668685E+04</totfact>
</mgrwt>
</event>
<event>
 4    1  0.4263413E+000  0.2584714E+03  0.7546771E-02  0.1108065E+00
         21   -1    0    0  501  502  0.00000000000E+00  0.00000000000E+00  0.42158413912E+03  0.42158413912E+03  0.00000000000E+00 0. -1.
         21   -1    0    0  502  503 -0.00000000000E+00 -0.00000000000E+00 -0.27063321266E+03  0.27063321266E+03  0.00000000000E+00 0.  1.
          6    1    1    2  501    0 -0.60481632849E+02  0.18226477827E+03  0.29829413111E+03  0.39469844941E+03  0.17300000000E+03 0. -1.
         -6    1    1    2    0  503  0.60481632849E+02 -0.18226477827E+03 -0.14734320465E+03  0.29751890237E+03  0.17300000000E+03 0.  1.
<mgrwt>
<rscale>  2 0.25847142E+03</rscale>
<asrwt>0</asrwt>
<pdfrwt beam="1">  1       21 0.64859098E-01 0.25847142E+03</pdfrwt>
<pdfrwt beam="2">  1       21 0.41635879E-01 0.25847142E+03</pdfrwt>
<totfact> 0.11694354E+04</totfact>
</mgrwt>
</event>
<event>
 4    1  0.4263413E+000  0.2252322E+03  0.7546771E-02  0.1130041E+00
         21   -1    0    0  503  502  0.00000000000E+00  0.00000000000E+00  0.27705749281E+03  0.27705749281E+03  0.00000000000E+00 0.  1.
         21   -1    0    0  501  503 -0.00000000000E+00 -0.00000000000E+00 -0.24532306961E+03  0.24532306961E+03  0.00000000000E+00 0.  1.
          6    1    1    2  501    0  0.97949624583E+02  0.10586034721E+03 -0.11567331146E+03  0.25319924378E+03  0.17300000000E+03 0.  1.
         -6    1    1    2    0  502 -0.97949624583E+02 -0.10586034721E+03  0.14740773466E+03  0.26918131864E+03  0.17300000000E+03 0.  1.
<mgrwt>
<rscale>  2 0.22523220E+03</rscale>
<asrwt>0</asrwt>
<pdfrwt beam="1">  1       21 0.42624230E-01 0.22523220E+03</pdfrwt>
<pdfrwt beam="2">  1       21 0.37742010E-01 0.22523220E+03</pdfrwt>
<totfact> 0.35258552E+04</totfact>
</mgrwt>
</event>
<event>
 4    1  0.4263413E+000  0.2646096E+03  0.7546771E-02  0.1104405E+00
         21   -1    0    0  501  502  0.00000000000E+00  0.00000000000E+00  0.24110244175E+03  0.24110244175E+03  0.00000000000E+00 0. -1.
         21   -1    0    0  502  503 -0.00000000000E+00 -0.00000000000E+00 -0.31001777912E+03  0.31001777912E+03  0.00000000000E+00 0. -1.
          6    1    1    2  501    0 -0.76114520755E+02 -0.18519133295E+03  0.34845244879E+02  0.26689406356E+03  0.17300000000E+03 0. -1.
         -6    1    1    2    0  503  0.76114520755E+02  0.18519133295E+03 -0.10376058225E+03  0.28422615731E+03  0.17300000000E+03 0. -1.
<mgrwt>
<rscale>  2 0.26460962E+03</rscale>
<asrwt>0</asrwt>
<pdfrwt beam="1">  1       21 0.37092684E-01 0.26460962E+03</pdfrwt>
<pdfrwt beam="2">  1       21 0.47695043E-01 0.26460962E+03</pdfrwt>
<totfact> 0.28440011E+04</totfact>
</mgrwt>
</event>
<event>
 4    1  0.4263413E+000  0.2324637E+03  0.7546771E-02  0.1124918E+00
         21   -1    0    0  501  502  0.00000000000E+00  0.00000000000E+00  0.80321844996E+03  0.80321844996E+03  0.00000000000E+00 0. -1.
         21   -1    0    0  502  503 -0.00000000000E+00 -0.00000000000E+00 -0.70761956323E+02  0.70761956323E+02  0.00000000000E+00 0. -1.
          6    1    1    2  501    0 -0.86200938714E+02 -0.12915017614E+03  0.46318410874E+03  0.51824597289E+03  0.17300000000E+03 0. -1.
         -6    1    1    2    0  503  0.86200938714E+02  0.12915017614E+03  0.26927238490E+03  0.35573443340E+03  0.17300000000E+03 0. -1.
<mgrwt>
<rscale>  2 0.23246370E+03</rscale>
<asrwt>0</asrwt>
<pdfrwt beam="1">  1       21 0.12357206E+00 0.23246370E+03</pdfrwt>
<pdfrwt beam="2">  1       21 0.10886455E-01 0.23246370E+03</pdfrwt>
<totfact> 0.33528000E+04</totfact>
</mgrwt>
</event>
<event>
 4    1  0.4263413E+000  0.1779194E+03  0.7546771E-02  0.1169832E+00
         21   -1    0    0  501  502  0.00000000000E+00  0.00000000000E+00  0.63586603233E+03  0.63586603233E+03  0.00000000000E+00 0. -1.
         21   -1    0    0  502  503 -0.00000000000E+00 -0.00000000000E+00 -0.14702969258E+03  0.14702969258E+03  0.00000000000E+00 0. -1.
          6    1    1    2  501    0 -0.14285833985E+02  0.39015609252E+02  0.56277111860E+03  0.59022591839E+03  0.17300000000E+03 0. -1.
         -6    1    1    2    0  503  0.14285833985E+02 -0.39015609252E+02 -0.73934778850E+02  0.19266980651E+03  0.17300000000E+03 0. -1.
<mgrwt>
<rscale>  2 0.17791937E+03</rscale>
<asrwt>0</asrwt>
<pdfrwt beam="1">  1       21 0.97825542E-01 0.17791937E+03</pdfrwt>
<pdfrwt beam="2">  1       21 0.22619953E-01 0.17791937E+03</pdfrwt>
<totfact> 0.15991447E+04</totfact>
</mgrwt>
</event>
<event>
 4    1  0.4263413E+000  0.2060152E+03  0.7546771E-02  0.1144761E+00
         21   -1    0    0  503  502  0.00000000000E+00  0.00000000000E+00  0.10369316448E+03  0.10369316448E+03  0.00000000000E+00 0. -1.
         21   -1    0    0  501  503 -0.00000000000E+00 -0.00000000000E+00 -0.43645587358E+03  0.43645587358E+03  0.00000000000E+00 0. -1.
          6    1    1    2  501    0  0.25760312451E+02 -0.10885616420E+03 -0.23374033579E+03  0.31157150505E+03  0.17300000000E+03 0. -1.
         -6    1    1    2    0  502 -0.25760312451E+02  0.10885616420E+03 -0.99022373310E+02  0.22857753301E+03  0.17300000000E+03 0. -1.
<mgrwt>
<rscale>  2 0.20601519E+03</rscale>
<asrwt>0</asrwt>
<pdfrwt beam="1">  1       21 0.15952795E-01 0.20601519E+03</pdfrwt>
<pdfrwt beam="2">  1       21 0.67147057E-01 0.20601519E+03</pdfrwt>
<totfact> 0.70747428E+04</totfact>
</mgrwt>
</event>
<event>
 4    1  0.4263413E+000  0.2219822E+03  0.7546771E-02  0.1132414E+00
         21   -1    0    0  503  502  0.00000000000E+00  0.00000000000E+00  0.37991247247E+03  0.37991247247E+03  0.00000000000E+00 0.  1.
         21   -1    0    0  501  503 -0.00000000000E+00 -0.00000000000E+00 -0.13039874019E+03  0.13039874019E+03  0.00000000000E+00 0.  1.
          6    1    1    2  501    0 -0.13893823890E+03  0.65777906453E+01  0.10613025988E+03  0.24604823433E+03  0.17300000000E+03 0.  1.
         -6    1    1    2    0  502  0.13893823890E+03 -0.65777906453E+01  0.14338347239E+03  0.26426297832E+03  0.17300000000E+03 0.  1.
<mgrwt>
<rscale>  2 0.22198221E+03</rscale>
<asrwt>0</asrwt>
<pdfrwt beam="1">  1       21 0.58448072E-01 0.22198221E+03</pdfrwt>
<pdfrwt beam="2">  1       21 0.20061345E-01 0.22198221E+03</pdfrwt>
<totfact> 0.62082172E+04</totfact>
</mgrwt>
</event>
<event>
 4    1  0.4263413E+000  0.1779530E+03  0.7546771E-02  0.1169799E+00
         21   -1    0    0  501  502  0.00000000000E+00  0.00000000000E+00  0.83693339628E+02  0.83693339628E+02  0.00000000000E+00 0.  1.
         21   -1    0    0  502  503 -0.00000000000E+00 -0.00000000000E+00 -0.46270618647E+03  0.46270618647E+03  0.00000000000E+00 0.  1.
          6    1    1    2  501    0 -0.28227562993E+02  0.30683231382E+02 -0.72871589887E+02  0.19229540976E+03  0.17300000000E+03 0.  1.
         -6    1    1    2    0  503  0.28227562993E+02 -0.30683231382E+02 -0.30614125695E+03  0.35410411634E+03  0.17300000000E+03 0.  1.
<mgrwt>
<rscale>  2 0.17795296E+03</rscale>
<asrwt>0</asrwt>
<pdfrwt beam="1">  1       21 0.12875898E-01 0.17795296E+03</pdfrwt>
<pdfrwt beam="2">  1       21 0.71185567E-01 0.17795296E+03</pdfrwt>
<totfact> 0.92880573E+04</totfact>
</mgrwt>
</event>
<event>
 4    1  0.4263413E+000  0.2018156E+03  0.7546771E-02  0.1148216E+00
         21   -1    0    0  501  502  0.00000000000E+00  0.00000000000E+00  0.90877271916E+02  0.90877271916E+02  0.00000000000E+00 0. -1.
         21   -1    0    0  502  503 -0.00000000000E+00 -0.00000000000E+00 -0.45769192741E+03  0.45769192741E+03  0.00000000000E+00 0. -1.
          6    1    1    2  501    0  0.10371364936E+03  0.66331452274E+01 -0.14386949167E+03  0.24784662659E+03  0.17300000000E+03 0. -1.
         -6    1    1    2    0  503 -0.10371364936E+03 -0.66331452274E+01 -0.22294516381E+03  0.30072257273E+03  0.17300000000E+03 0. -1.
<mgrwt>
<rscale>  2 0.20181556E+03</rscale>
<asrwt>0</asrwt>
<pdfrwt beam="1">  1       21 0.13981119E-01 0.20181556E+03</pdfrwt>
<pdfrwt beam="2">  1       21 0.70414144E-01 0.20181556E+03</pdfrwt>
<totfact> 0.81195269E+04</totfact>
</mgrwt>
</event>
<event>
 4    1  0.4263413E+000  0.1876465E+03  0.7546771E-02  0.1160601E+00
         21   -1    0    0  501  502  0.00000000000E+00  0.00000000000E+00  0.15869813610E+04  0.15869813610E+04  0.00000000000E+00 0. -1.
         21   -1    0    0  502  503 -0.00000000000E+00 -0.00000000000E+00 -0.76697722653E+02  0.76697722653E+02  0.00000000000E+00 0. -1.
          6    1    1    2  501    0  0.35928499971E+02 -0.63177256846E+02  0.14564148201E+04  0.14684533874E+04  0.17300000000E+03 0. -1.
         -6    1    1    2    0  503 -0.35928499971E+02  0.63177256846E+02  0.53868818291E+02  0.19522569625E+03  0.17300000000E+03 0. -1.
<mgrwt>
<rscale>  2 0.18764654E+03</rscale>
<asrwt>0</asrwt>
<pdfrwt beam="1">  1       21 0.24415095E+00 0.18764654E+03</pdfrwt>
<pdfrwt beam="2">  1       21 0.11799651E-01 0.18764654E+03</pdfrwt>
<totfact> 0.43766700E+03</totfact>
</mgrwt>
</event>
<event>
 4    1  0.4263413E+000  0.1872994E+03  0.7546771E-02  0.1160920E+00
         21   -1    0    0  503  502  0.00000000000E+00  0.00000000000E+00  0.22844727940E+03  0.22844727940E+03  0.00000000000E+00 0. -1.
         21   -1    0    0  501  503 -0.00000000000E+00 -0.00000000000E+00 -0.15721006344E+03  0.15721006344E+03  0.00000000000E+00 0. -1.
          6    1    1    2  501    0  0.52326685802E+02  0.49132309696E+02  0.64988262541E+02  0.19825372675E+03  0.17300000000E+03 0.  1.
         -6    1    1    2    0  502 -0.52326685802E+02 -0.49132309696E+02  0.62489534234E+01  0.18740361609E+03  0.17300000000E+03 0.  1.
<mgrwt>
<rscale>  2 0.18729940E+03</rscale>
<asrwt>0</asrwt>
<pdfrwt beam="1">  1       21 0.35145735E-01 0.18729940E+03</pdfrwt>
<pdfrwt beam="2">  1       21 0.24186164E-01 0.18729940E+03</pdfrwt>
<totfact> 0.12614563E+05</totfact>
</mgrwt>
</event>
<event>
 4    1  0.4263413E+000  0.2195217E+03  0.7546771E-02  0.1134240E+00
         21   -1    0    0  501  502  0.00000000000E+00  0.00000000000E+00  0.38249877805E+02  0.38249877805E+02  0.00000000000E+00 0.  1.
         21   -1    0    0  502  503 -0.00000000000E+00 -0.00000000000E+00 -0.20537654561E+04  0.20537654561E+04  0.00000000000E+00 0.  1.
          6    1    1    2  501    0  0.46329965349E+02  0.12694212311E+03 -0.35741570855E+03  0.41944696569E+03  0.17300000000E+03 0.  1.
         -6    1    1    2    0  503 -0.46329965349E+02 -0.12694212311E+03 -0.16580998698E+04  0.16725683683E+04  0.17300000000E+03 0.  1.
<mgrwt>
<rscale>  2 0.21952168E+03</rscale>
<asrwt>0</asrwt>
<pdfrwt beam="1">  1       21 0.58845945E-02 0.21952168E+03</pdfrwt>
<pdfrwt beam="2">  1       21 0.31596403E+00 0.21952168E+03</pdfrwt>
<totfact> 0.54624329E+03</totfact>
</mgrwt>
</event>
<event>
 4    1  0.4263413E+000  0.1881805E+03  0.7546771E-02  0.1160113E+00
         21   -1    0    0  501  502  0.00000000000E+00  0.00000000000E+00  0.12140842871E+03  0.12140842871E+03  0.00000000000E+00 0. -1.
         21   -1    0    0  502  503 -0.00000000000E+00 -0.00000000000E+00 -0.30135035993E+03  0.30135035993E+03  0.00000000000E+00 0.  1.
          6    1    1    2  501    0 -0.63329295669E+02  0.38370796489E+02 -0.52097135043E+02  0.19525887737E+03  0.17300000000E+03 0.  1.
         -6    1    1    2    0  503  0.63329295669E+02 -0.38370796489E+02 -0.12784479618E+03  0.22749991126E+03  0.17300000000E+03 0.  1.
<mgrwt>
<rscale>  2 0.18818055E+03</rscale>
<asrwt>0</asrwt>
<pdfrwt beam="1">  1       21 0.18678220E-01 0.18818055E+03</pdfrwt>
<pdfrwt beam="2">  1       21 0.46361594E-01 0.18818055E+03</pdfrwt>
<totfact> 0.11702862E+05</totfact>
</mgrwt>
</event>
<event>
 4    1  0.4263413E+000  0.1847853E+03  0.7546771E-02  0.1163251E+00
         21   -1    0    0  501  502  0.00000000000E+00  0.00000000000E+00  0.31146152613E+03  0.31146152613E+03  0.00000000000E+00 0.  1.
         21   -1    0    0  502  503 -0.00000000000E+00 -0.00000000000E+00 -0.11090619307E+03  0.11090619307E+03  0.00000000000E+00 0.  1.
          6    1    1    2  501    0 -0.54377262660E+01  0.64707206206E+02  0.12292963190E+03  0.22193982473E+03  0.17300000000E+03 0.  1.
         -6    1    1    2    0  503  0.54377262660E+01 -0.64707206206E+02  0.77625701163E+02  0.20042789447E+03  0.17300000000E+03 0.  1.
<mgrwt>
<rscale>  2 0.18478526E+03</rscale>
<asrwt>0</asrwt>
<pdfrwt beam="1">  1       21 0.47917157E-01 0.18478526E+03</pdfrwt>
<pdfrwt beam="2">  1       21 0.17062491E-01 0.18478526E+03</pdfrwt>
<totfact> 0.12934100E+05</totfact>
</mgrwt>
</event>
<event>
 4    1  0.4263413E+000  0.1968666E+03  0.7546771E-02  0.1152410E+00
         21   -1    0    0  501  502  0.00000000000E+00  0.00000000000E+00  0.17356238632E+03  0.17356238632E+03  0.00000000000E+00 0.  1.
         21   -1    0    0  502  503 -0.00000000000E+00 -0.00000000000E+00 -0.55588030511E+03  0.55588030511E+03  0.00000000000E+00 0.  1.
          6    1    1    2  501    0  0.89652415397E+02 -0.28104991706E+02  0.90951333810E+02  0.21686076470E+03  0.17300000000E+03 0.  1.
         -6    1    1    2    0  503 -0.89652415397E+02  0.28104991706E+02 -0.47326925260E+03  0.51258192672E+03  0.17300000000E+03 0.  1.
<mgrwt>
<rscale>  2 0.19686657E+03</rscale>
<asrwt>0</asrwt>
<pdfrwt beam="1">  1       21 0.26701905E-01 0.19686657E+03</pdfrwt>
<pdfrwt beam="2">  1       21 0.85520048E-01 0.19686657E+03</pdfrwt>
<totfact> 0.15734085E+04</totfact>
</mgrwt>
</event>
<event>
 4    1  0.4263413E+000  0.2259218E+03  0.7546771E-02  0.1129544E+00
         21   -1    0    0  501  502  0.00000000000E+00  0.00000000000E+00  0.17187187366E+03  0.17187187366E+03  0.00000000000E+00 0. -1.
         21   -1    0    0  502  503 -0.00000000000E+00 -0.00000000000E+00 -0.48490411671E+03  0.48490411671E+03  0.00000000000E+00 0.  1.
          6    1    1    2  501    0  0.27497115278E+02  0.14267292206E+03  0.47922557669E+02  0.23094853446E+03  0.17300000000E+03 0. -1.
         -6    1    1    2    0  503 -0.27497115278E+02 -0.14267292206E+03 -0.36095480072E+03  0.42582745590E+03  0.17300000000E+03 0.  1.
<mgrwt>
<rscale>  2 0.22592179E+03</rscale>
<asrwt>0</asrwt>
<pdfrwt beam="1">  1       21 0.26441827E-01 0.22592179E+03</pdfrwt>
<pdfrwt beam="2">  1       21 0.74600633E-01 0.22592179E+03</pdfrwt>
<totfact> 0.21476761E+04</totfact>
</mgrwt>
</event>
<event>
 4    1  0.4263413E+000  0.2116137E+03  0.7546771E-02  0.1140294E+00
         21   -1    0    0  503  502  0.00000000000E+00  0.00000000000E+00  0.64411159923E+03  0.64411159923E+03  0.00000000000E+00 0.  1.
         21   -1    0    0  501  503 -0.00000000000E+00 -0.00000000000E+00 -0.11613267739E+03  0.11613267739E+03  0.00000000000E+00 0.  1.
          6    1    1    2  501    0 -0.12175512277E+03 -0.51990316284E+01  0.23173281130E+02  0.21287869975E+03  0.17300000000E+03 0.  1.
         -6    1    1    2    0  502  0.12175512277E+03  0.51990316284E+01  0.50480564071E+03  0.54736557687E+03  0.17300000000E+03 0.  1.
<mgrwt>
<rscale>  2 0.21161366E+03</rscale>
<asrwt>0</asrwt>
<pdfrwt beam="1">  1       21 0.99094090E-01 0.21161366E+03</pdfrwt>
<pdfrwt beam="2">  1       21 0.17866566E-01 0.21161366E+03</pdfrwt>
<totfact> 0.23610243E+04</totfact>
</mgrwt>
</event>
<event>
 4    1  0.4263413E+000  0.1770544E+03  0.7546771E-02  0.1170685E+00
         21   -1    0    0  503  502  0.00000000000E+00  0.00000000000E+00  0.43905528627E+03  0.43905528627E+03  0.00000000000E+00 0. -1.
         21   -1    0    0  501  503 -0.00000000000E+00 -0.00000000000E+00 -0.85171049259E+02  0.85171049259E+02  0.00000000000E+00 0. -1.
          6    1    1    2  501    0 -0.29979623527E+02 -0.22813775572E+02  0.71542952265E+02  0.19096240520E+03  0.17300000000E+03 0. -1.
         -6    1    1    2    0  502  0.29979623527E+02  0.22813775572E+02  0.28234128474E+03  0.33326393032E+03  0.17300000000E+03 0. -1.
<mgrwt>
<rscale>  2 0.17705436E+03</rscale>
<asrwt>0</asrwt>
<pdfrwt beam="1">  1       21 0.67546966E-01 0.17705436E+03</pdfrwt>
<pdfrwt beam="2">  1       21 0.13103239E-01 0.17705436E+03</pdfrwt>
<totfact> 0.10103436E+05</totfact>
</mgrwt>
</event>
<event>
 4    1  0.4263413E+000  0.1955420E+03  0.7546771E-02  0.1153556E+00
         21   -1    0    0  503  502  0.00000000000E+00  0.00000000000E+00  0.74161872893E+03  0.74161872893E+03  0.00000000000E+00 0. -1.
         21   -1    0    0  501  503 -0.00000000000E+00 -0.00000000000E+00 -0.51589164446E+02  0.51589164446E+02  0.00000000000E+00 0. -1.
          6    1    1    2  501    0 -0.71273204163E+02 -0.56813606475E+02  0.33532557085E+03  0.38817508161E+03  0.17300000000E+03 0. -1.
         -6    1    1    2    0  502  0.71273204163E+02  0.56813606475E+02  0.35470399363E+03  0.40503281177E+03  0.17300000000E+03 0. -1.
<mgrwt>
<rscale>  2 0.19554195E+03</rscale>
<asrwt>0</asrwt>
<pdfrwt beam="1">  1       21 0.11409518E+00 0.19554195E+03</pdfrwt>
<pdfrwt beam="2">  1       21 0.79367950E-02 0.19554195E+03</pdfrwt>
<totfact> 0.72617280E+04</totfact>
</mgrwt>
</event>
<event>
 4    1  0.4263413E+000  0.1938637E+03  0.7546771E-02  0.1155022E+00
         21   -1    0    0  503  502  0.00000000000E+00  0.00000000000E+00  0.16993003980E+03  0.16993003980E+03  0.00000000000E+00 0. -1.
         21   -1    0    0  501  503 -0.00000000000E+00 -0.00000000000E+00 -0.75142732184E+03  0.75142732184E+03  0.00000000000E+00 0. -1.
          6    1    1    2  501    0  0.44250654649E+02 -0.75472010894E+02 -0.67773765858E+03  0.70491948386E+03  0.17300000000E+03 0. -1.
         -6    1    1    2    0  502 -0.44250654649E+02  0.75472010894E+02  0.96240376535E+02  0.21643787779E+03  0.17300000000E+03 0. -1.
<mgrwt>
<rscale>  2 0.19386373E+03</rscale>
<asrwt>0</asrwt>
<pdfrwt beam="1">  1       21 0.26143083E-01 0.19386373E+03</pdfrwt>
<pdfrwt beam="2">  1       21 0.11560420E+00 0.19386373E+03</pdfrwt>
<totfact> 0.80414229E+03</totfact>
</mgrwt>
</event>
<event>
 4    1  0.4263413E+000  0.2063953E+03  0.7546771E-02  0.1144453E+00
         21   -1    0    0  503  502  0.00000000000E+00  0.00000000000E+00  0.25281213031E+03  0.25281213031E+03  0.00000000000E+00 0. -1.
         21   -1    0    0  501  503 -0.00000000000E+00 -0.00000000000E+00 -0.17784694097E+03  0.17784694097E+03  0.00000000000E+00 0.  1.
          6    1    1    2  501    0 -0.56230026001E+02 -0.97510065731E+02  0.86845211281E+02  0.22392212813E+03  0.17300000000E+03 0.  1.
         -6    1    1    2    0  502  0.56230026001E+02  0.97510065731E+02 -0.11880021938E+02  0.20673694315E+03  0.17300000000E+03 0.  1.
<mgrwt>
<rscale>  2 0.20639532E+03</rscale>
<asrwt>0</asrwt>
<pdfrwt beam="1">  1       21 0.38894174E-01 0.20639532E+03</pdfrwt>
<pdfrwt beam="2">  1       21 0.27361068E-01 0.20639532E+03</pdfrwt>
<totfact> 0.80720096E+04</totfact>
</mgrwt>
</event>
<event>
 4    1  0.4263413E+000  0.1890296E+03  0.7546771E-02  0.1159339E+00
         21   -1    0    0  503  502  0.00000000000E+00  0.00000000000E+00  0.18386419223E+03  0.18386419223E+03  0.00000000000E+00 0.  1.
         21   -1    0    0  501  503 -0.00000000000E+00 -0.00000000000E+00 -0.36611043394E+03  0.36611043394E+03  0.00000000000E+00 0.  1.
          6    1    1    2  501    0 -0.63281779420E+02 -0.42410035730E+02 -0.27947962477E+03  0.33740340158E+03  0.17300000000E+03 0.  1.
         -6    1    1    2    0  502  0.63281779420E+02  0.42410035730E+02  0.97233383063E+02  0.21257122458E+03  0.17300000000E+03 0.  1.
<mgrwt>
<rscale>  2 0.18902961E+03</rscale>
<asrwt>0</asrwt>
<pdfrwt beam="1">  1       21 0.28286799E-01 0.18902961E+03</pdfrwt>
<pdfrwt beam="2">  1       21 0.56324682E-01 0.18902961E+03</pdfrwt>
<totfact> 0.35494310E+04</totfact>
</mgrwt>
</event>
<event>
 4    1  0.4263413E+000  0.1929520E+03  0.7546771E-02  0.1155825E+00
         21   -1    0    0  503  502  0.00000000000E+00  0.00000000000E+00  0.21246504230E+03  0.21246504230E+03  0.00000000000E+00 0.  1.
         21   -1    0    0  501  503 -0.00000000000E+00 -0.00000000000E+00 -0.25489176728E+03  0.25489176728E+03  0.00000000000E+00 0.  1.
          6    1    1    2  501    0  0.84926821575E+02 -0.94282017499E+01 -0.15184939803E+03  0.24553756473E+03  0.17300000000E+03 0.  1.
         -6    1    1    2    0  502 -0.84926821575E+02  0.94282017499E+01  0.10942267305E+03  0.22181924485E+03  0.17300000000E+03 0.  1.
<mgrwt>
<rscale>  2 0.19295195E+03</rscale>
<asrwt>0</asrwt>
<pdfrwt beam="1">  1       21 0.32686930E-01 0.19295195E+03</pdfrwt>
<pdfrwt beam="2">  1       21 0.39214118E-01 0.19295195E+03</pdfrwt>
<totfact> 0.56473475E+04</totfact>
</mgrwt>
</event>
<event>
 4    1  0.4263413E+000  0.2225164E+03  0.7546771E-02  0.1132021E+00
         21   -1    0    0  501  502  0.00000000000E+00  0.00000000000E+00  0.69075811262E+03  0.69075811262E+03  0.00000000000E+00 0.  1.
         21   -1    0    0  502  503 -0.00000000000E+00 -0.00000000000E+00 -0.10373147558E+03  0.10373147558E+03  0.00000000000E+00 0.  1.
          6    1    1    2  501    0  0.13075543780E+03 -0.49875406305E+02  0.51432749854E+03  0.56039835512E+03  0.17300000000E+03 0.  1.
         -6    1    1    2    0  503 -0.13075543780E+03  0.49875406305E+02  0.72699138498E+02  0.23409123309E+03  0.17300000000E+03 0.  1.
<mgrwt>
<rscale>  2 0.22251638E+03</rscale>
<asrwt>0</asrwt>
<pdfrwt beam="1">  1       21 0.10627048E+00 0.22251638E+03</pdfrwt>
<pdfrwt beam="2">  1       21 0.15958689E-01 0.22251638E+03</pdfrwt>
<totfact> 0.24438586E+04</totfact>
</mgrwt>
</event>
<event>
 4    1  0.4263413E+000  0.2175231E+03  0.7546771E-02  0.1135743E+00
         21   -1    0    0  501  502  0.00000000000E+00  0.00000000000E+00  0.17539722624E+03  0.17539722624E+03  0.00000000000E+00 0.  1.
         21   -1    0    0  502  503 -0.00000000000E+00 -0.00000000000E+00 -0.66285262696E+03  0.66285262696E+03  0.00000000000E+00 0. -1.
          6    1    1    2  501    0 -0.12982323694E+03 -0.23091670629E+02  0.79031663399E+02  0.23143530828E+03  0.17300000000E+03 0.  1.
         -6    1    1    2    0  503  0.12982323694E+03  0.23091670629E+02 -0.56648706412E+03  0.60681454491E+03  0.17300000000E+03 0. -1.
<mgrwt>
<rscale>  2 0.21752310E+03</rscale>
<asrwt>0</asrwt>
<pdfrwt beam="1">  1       21 0.26984189E-01 0.21752310E+03</pdfrwt>
<pdfrwt beam="2">  1       21 0.10197733E+00 0.21752310E+03</pdfrwt>
<totfact> 0.10078381E+04</totfact>
</mgrwt>
</event>
<event>
 4    1  0.4263413E+000  0.1843113E+03  0.7546771E-02  0.1163695E+00
         21   -1    0    0  503  502  0.00000000000E+00  0.00000000000E+00  0.48984720777E+03  0.48984720777E+03  0.00000000000E+00 0. -1.
         21   -1    0    0  501  503 -0.00000000000E+00 -0.00000000000E+00 -0.72087870083E+02  0.72087870083E+02  0.00000000000E+00 0. -1.
          6    1    1    2  501    0 -0.58938069574E+02  0.23831755685E+02  0.15411848978E+03  0.24025644116E+03  0.17300000000E+03 0.  1.
         -6    1    1    2    0  502  0.58938069574E+02 -0.23831755685E+02  0.26364084791E+03  0.32167863670E+03  0.17300000000E+03 0.  1.
<mgrwt>
<rscale>  2 0.18431128E+03</rscale>
<asrwt>0</asrwt>
<pdfrwt beam="1">  1       21 0.75361107E-01 0.18431128E+03</pdfrwt>
<pdfrwt beam="2">  1       21 0.11090442E-01 0.18431128E+03</pdfrwt>
<totfact> 0.10657960E+05</totfact>
</mgrwt>
</event>
<event>
 4    1  0.4263413E+000  0.2061662E+03  0.7546771E-02  0.1144638E+00
         21   -1    0    0  501  502  0.00000000000E+00  0.00000000000E+00  0.88630093980E+02  0.88630093980E+02  0.00000000000E+00 0. -1.
         21   -1    0    0  502  503 -0.00000000000E+00 -0.00000000000E+00 -0.21343631288E+04  0.21343631288E+04  0.00000000000E+00 0. -1.
          6    1    1    2  501    0  0.93827396161E+02 -0.61415873141E+02 -0.44175477719E+02  0.21084582656E+03  0.17300000000E+03 0. -1.
         -6    1    1    2    0  503 -0.93827396161E+02  0.61415873141E+02 -0.20015575571E+04  0.20121473963E+04  0.17300000000E+03 0. -1.
<mgrwt>
<rscale>  2 0.20616617E+03</rscale>
<asrwt>0</asrwt>
<pdfrwt beam="1">  1       21 0.13635399E-01 0.20616617E+03</pdfrwt>
<pdfrwt beam="2">  1       21 0.32836355E+00 0.20616617E+03</pdfrwt>
<totfact> 0.10717660E+03</totfact>
</mgrwt>
</event>
<event>
 4    1  0.4263413E+000  0.2777147E+03  0.7546771E-02  0.1096944E+00
         21   -1    0    0  501  502  0.00000000000E+00  0.00000000000E+00  0.20344047558E+04  0.20344047558E+04  0.00000000000E+00 0.  1.
         21   -1    0    0  502  503 -0.00000000000E+00 -0.00000000000E+00 -0.91437476684E+02  0.91437476684E+02  0.00000000000E+00 0. -1.
          6    1    1    2  501    0 -0.10521397855E+03 -0.19006967279E+03  0.17847352951E+04  0.18062130371E+04  0.17300000000E+03 0.  1.
         -6    1    1    2    0  503  0.10521397855E+03  0.19006967279E+03  0.15823198406E+03  0.31962919544E+03  0.17300000000E+03 0. -1.
<mgrwt>
<rscale>  2 0.27771471E+03</rscale>
<asrwt>0</asrwt>
<pdfrwt beam="1">  1       21 0.31298531E+00 0.27771471E+03</pdfrwt>
<pdfrwt beam="2">  1       21 0.14067306E-01 0.27771471E+03</pdfrwt>
<totfact> 0.11504539E+03</totfact>
</mgrwt>
</event>
<event>
 4    1  0.4263413E+000  0.1797102E+03  0.7546771E-02  0.1168084E+00
         21   -1    0    0  501  502  0.00000000000E+00  0.00000000000E+00  0.78990275636E+03  0.78990275636E+03  0.00000000000E+00 0. -1.
         21   -1    0    0  502  503 -0.00000000000E+00 -0.00000000000E+00 -0.28696213171E+03  0.28696213171E+03  0.00000000000E+00 0. -1.
          6    1    1    2  501    0  0.59704626562E+01  0.48281705541E+02  0.75007216634E+03  0.77130021667E+03  0.17300000000E+03 0. -1.
         -6    1    1    2    0  503 -0.59704626562E+01 -0.48281705541E+02 -0.24713154168E+03  0.30556467140E+03  0.17300000000E+03 0. -1.
<mgrwt>
<rscale>  2 0.17971024E+03</rscale>
<asrwt>0</asrwt>
<pdfrwt beam="1">  1       21 0.12152350E+00 0.17971024E+03</pdfrwt>
<pdfrwt beam="2">  1       21 0.44148021E-01 0.17971024E+03</pdfrwt>
<totfact> 0.25523523E+03</totfact>
</mgrwt>
</event>
<event>
 4    1  0.4263413E+000  0.2657178E+03  0.7546771E-02  0.1103756E+00
         21   -1    0    0  501  502  0.00000000000E+00  0.00000000000E+00  0.78169901372E+03  0.78169901372E+03  0.00000000000E+00 0. -1.
         21   -1    0    0  502  503 -0.00000000000E+00 -0.00000000000E+00 -0.90456900410E+02  0.90456900410E+02  0.00000000000E+00 0. -1.
          6    1    1    2  501    0  0.12698201313E+03 -0.15669244448E+03  0.32888773027E+03  0.42281567253E+03  0.17300000000E+03 0. -1.
         -6    1    1    2    0  503 -0.12698201313E+03  0.15669244448E+03  0.36235438305E+03  0.44934024161E+03  0.17300000000E+03 0. -1.
<mgrwt>
<rscale>  2 0.26571781E+03</rscale>
<asrwt>0</asrwt>
<pdfrwt beam="1">  1       21 0.12026138E+00 0.26571781E+03</pdfrwt>
<pdfrwt beam="2">  1       21 0.13916447E-01 0.26571781E+03</pdfrwt>
<totfact> 0.22683065E+04</totfact>
</mgrwt>
</event>
<event>
 4    1  0.4263413E+000  0.1958769E+03  0.7546771E-02  0.1153265E+00
         21   -1    0    0  503  502  0.00000000000E+00  0.00000000000E+00  0.18422137546E+02  0.18422137546E+02  0.00000000000E+00 0.  1.
         21   -1    0    0  501  503 -0.00000000000E+00 -0.00000000000E+00 -0.23447384844E+04  0.23447384844E+04  0.00000000000E+00 0. -1.
          6    1    1    2  501    0  0.91587236480E+02  0.71100733722E+01 -0.15581599661E+04  0.15704235909E+04  0.17300000000E+03 0.  1.
         -6    1    1    2    0  502 -0.91587236480E+02 -0.71100733722E+01 -0.76815638072E+03  0.79273703096E+03  0.17300000000E+03 0.  1.
<mgrwt>
<rscale>  2 0.19587694E+03</rscale>
<asrwt>0</asrwt>
<pdfrwt beam="1">  1       21 0.28341742E-02 0.19587694E+03</pdfrwt>
<pdfrwt beam="2">  1       21 0.36072910E+00 0.19587694E+03</pdfrwt>
<totfact> 0.10457675E+04</totfact>
</mgrwt>
</event>
<event>
 4    1  0.4263413E+000  0.1951169E+03  0.7546771E-02  0.1153926E+00
         21   -1    0    0  503  502  0.00000000000E+00  0.00000000000E+00  0.14585667769E+04  0.14585667769E+04  0.00000000000E+00 0.  1.
         21   -1    0    0  501  503 -0.00000000000E+00 -0.00000000000E+00 -0.49809283273E+02  0.49809283273E+02  0.00000000000E+00 0.  1.
          6    1    1    2  501    0  0.55295079054E+02  0.71302504217E+02  0.12246994936E+04  0.12401449280E+04  0.17300000000E+03 0.  1.
         -6    1    1    2    0  502 -0.55295079054E+02 -0.71302504217E+02  0.18405799999E+03  0.26823113212E+03  0.17300000000E+03 0.  1.
<mgrwt>
<rscale>  2 0.19511687E+03</rscale>
<asrwt>0</asrwt>
<pdfrwt beam="1">  1       21 0.22439486E+00 0.19511687E+03</pdfrwt>
<pdfrwt beam="2">  1       21 0.76629677E-02 0.19511687E+03</pdfrwt>
<totfact> 0.12203651E+04</totfact>
</mgrwt>
</event>
<event>
 4    1  0.4263413E+000  0.1990093E+03  0.7546771E-02  0.1150578E+00
         21   -1    0    0  501  502  0.00000000000E+00  0.00000000000E+00  0.12361698875E+04  0.12361698875E+04  0.00000000000E+00 0.  1.
         21   -1    0    0  502  503 -0.00000000000E+00 -0.00000000000E+00 -0.64924814042E+02  0.64924814042E+02  0.00000000000E+00 0.  1.
          6    1    1    2  501    0 -0.23005725719E+02  0.95636967943E+02  0.10486246245E+04  0.10673416961E+04  0.17300000000E+03 0.  1.
         -6    1    1    2    0  503  0.23005725719E+02 -0.95636967943E+02  0.12262044890E+03  0.23375300542E+03  0.17300000000E+03 0.  1.
<mgrwt>
<rscale>  2 0.19900928E+03</rscale>
<asrwt>0</asrwt>
<pdfrwt beam="1">  1       21 0.19017997E+00 0.19900928E+03</pdfrwt>
<pdfrwt beam="2">  1       21 0.99884338E-02 0.19900928E+03</pdfrwt>
<totfact> 0.12583711E+04</totfact>
</mgrwt>
</event>
<event>
 4    1  0.4263413E+000  0.1896035E+03  0.7546771E-02  0.1158819E+00
         21   -1    0    0  503  502  0.00000000000E+00  0.00000000000E+00  0.67364732492E+03  0.67364732492E+03  0.00000000000E+00 0.  1.
         21   -1    0    0  501  503 -0.00000000000E+00 -0.00000000000E+00 -0.96367894313E+02  0.96367894313E+02  0.00000000000E+00 0.  1.
          6    1    1    2  501    0  0.27562173939E+02  0.72531579055E+02  0.31452356171E+02  0.19219457355E+03  0.17300000000E+03 0.  1.
         -6    1    1    2    0  502 -0.27562173939E+02 -0.72531579055E+02  0.54582707444E+03  0.57782064569E+03  0.17300000000E+03 0.  1.
<mgrwt>
<rscale>  2 0.18960354E+03</rscale>
<asrwt>0</asrwt>
<pdfrwt beam="1">  1       21 0.10363805E+00 0.18960354E+03</pdfrwt>
<pdfrwt beam="2">  1       21 0.14825830E-01 0.18960354E+03</pdfrwt>
<totfact> 0.30260024E+04</totfact>
</mgrwt>
</event>
<event>
 4    1  0.4263413E+000  0.2291868E+03  0.7546771E-02  0.1127213E+00
         21   -1    0    0  503  502  0.00000000000E+00  0.00000000000E+00  0.15450973674E+03  0.15450973674E+03  0.00000000000E+00 0. -1.
         21   -1    0    0  501  503 -0.00000000000E+00 -0.00000000000E+00 -0.34024169594E+03  0.34024169594E+03  0.00000000000E+00 0.  1.
          6    1    1    2  501    0  0.14941487076E+03 -0.16516087485E+02 -0.10002836151E+03  0.25006450739E+03  0.17300000000E+03 0. -1.
         -6    1    1    2    0  502 -0.14941487076E+03  0.16516087485E+02 -0.85703597697E+02  0.24468692529E+03  0.17300000000E+03 0.  1.
<mgrwt>
<rscale>  2 0.22918679E+03</rscale>
<asrwt>0</asrwt>
<pdfrwt beam="1">  1       21 0.23770729E-01 0.22918679E+03</pdfrwt>
<pdfrwt beam="2">  1       21 0.52344875E-01 0.22918679E+03</pdfrwt>
<totfact> 0.56778081E+04</totfact>
</mgrwt>
</event>
<event>
 4    1  0.4263413E+000  0.2186308E+03  0.7546771E-02  0.1134908E+00
         21   -1    0    0  501  502  0.00000000000E+00  0.00000000000E+00  0.36568867513E+02  0.36568867513E+02  0.00000000000E+00 0.  1.
         21   -1    0    0  502  503 -0.00000000000E+00 -0.00000000000E+00 -0.15023804137E+04  0.15023804137E+04  0.00000000000E+00 0.  1.
          6    1    1    2  501    0 -0.66786195493E+02 -0.11580173287E+03 -0.45549362701E+03  0.50524635723E+03  0.17300000000E+03 0.  1.
         -6    1    1    2    0  503  0.66786195493E+02  0.11580173287E+03 -0.10103179191E+04  0.10337029239E+04  0.17300000000E+03 0.  1.
<mgrwt>
<rscale>  2 0.21863082E+03</rscale>
<asrwt>0</asrwt>
<pdfrwt beam="1">  1       21 0.56259806E-02 0.21863082E+03</pdfrwt>
<pdfrwt beam="2">  1       21 0.23113541E+00 0.21863082E+03</pdfrwt>
<totfact> 0.18555230E+04</totfact>
</mgrwt>
</event>
<event>
 4    1  0.4263413E+000  0.1863390E+03  0.7546771E-02  0.1161805E+00
         21   -1    0    0  501  502  0.00000000000E+00  0.00000000000E+00  0.36899231518E+03  0.36899231518E+03  0.00000000000E+00 0.  1.
         21   -1    0    0  502  503 -0.00000000000E+00 -0.00000000000E+00 -0.94467082107E+02  0.94467082107E+02  0.00000000000E+00 0.  1.
          6    1    1    2  501    0  0.68236312613E+02 -0.11705512949E+02  0.15170585150E+03  0.24028499490E+03  0.17300000000E+03 0. -1.
         -6    1    1    2    0  503 -0.68236312613E+02  0.11705512949E+02  0.12281938157E+03  0.22317440239E+03  0.17300000000E+03 0. -1.
<mgrwt>
<rscale>  2 0.18633897E+03</rscale>
<asrwt>0</asrwt>
<pdfrwt beam="1">  1       21 0.56768048E-01 0.18633897E+03</pdfrwt>
<pdfrwt beam="2">  1       21 0.14533397E-01 0.18633897E+03</pdfrwt>
<totfact> 0.12145855E+05</totfact>
</mgrwt>
</event>
<event>
 4    1  0.4263413E+000  0.1889970E+03  0.7546771E-02  0.1159369E+00
         21   -1    0    0  503  502  0.00000000000E+00  0.00000000000E+00  0.97747996907E+02  0.97747996907E+02  0.00000000000E+00 0. -1.
         21   -1    0    0  501  503 -0.00000000000E+00 -0.00000000000E+00 -0.89225293591E+03  0.89225293591E+03  0.00000000000E+00 0. -1.
          6    1    1    2  501    0 -0.83589345331E+01 -0.75637173904E+02 -0.77761241953E+03  0.80025054131E+03  0.17300000000E+03 0. -1.
         -6    1    1    2    0  502  0.83589345331E+01  0.75637173904E+02 -0.16892519475E+02  0.18975039151E+03  0.17300000000E+03 0. -1.
<mgrwt>
<rscale>  2 0.18899697E+03</rscale>
<asrwt>0</asrwt>
<pdfrwt beam="1">  1       21 0.15038154E-01 0.18899697E+03</pdfrwt>
<pdfrwt beam="2">  1       21 0.13726968E+00 0.18899697E+03</pdfrwt>
<totfact> 0.14737244E+04</totfact>
</mgrwt>
</event>
<event>
 4    1  0.4263413E+000  0.1734591E+03  0.7546771E-02  0.1174288E+00
         21   -1    0    0  503  502  0.00000000000E+00  0.00000000000E+00  0.79495675175E+02  0.79495675175E+02  0.00000000000E+00 0.  1.
         21   -1    0    0  501  503 -0.00000000000E+00 -0.00000000000E+00 -0.38272751731E+03  0.38272751731E+03  0.00000000000E+00 0.  1.
          6    1    1    2  501    0  0.12455164022E+02  0.19787090968E+01 -0.12728784839E+03  0.21515167382E+03  0.17300000000E+03 0. -1.
         -6    1    1    2    0  502 -0.12455164022E+02 -0.19787090968E+01 -0.17594399375E+03  0.24707151867E+03  0.17300000000E+03 0. -1.
<mgrwt>
<rscale>  2 0.17345906E+03</rscale>
<asrwt>0</asrwt>
<pdfrwt beam="1">  1       21 0.12230104E-01 0.17345906E+03</pdfrwt>
<pdfrwt beam="2">  1       21 0.58881156E-01 0.17345906E+03</pdfrwt>
<totfact> 0.15399868E+05</totfact>
</mgrwt>
</event>
<event>
 4    1  0.4263413E+000  0.2210654E+03  0.7546771E-02  0.1133091E+00
         21   -1    0    0  501  502  0.00000000000E+00  0.00000000000E+00  0.36962550213E+03  0.36962550213E+03  0.00000000000E+00 0. -1.
         21   -1    0    0  502  503 -0.00000000000E+00 -0.00000000000E+00 -0.16112617862E+03  0.16112617862E+03  0.00000000000E+00 0. -1.
          6    1    1    2  501    0 -0.13044731760E+03 -0.43868125968E+02  0.21666192152E+03  0.30953562538E+03  0.17300000000E+03 0. -1.
         -6    1    1    2    0  503  0.13044731760E+03  0.43868125968E+02 -0.81625980037E+01  0.22121605537E+03  0.17300000000E+03 0. -1.
<mgrwt>
<rscale>  2 0.22106541E+03</rscale>
<asrwt>0</asrwt>
<pdfrwt beam="1">  1       21 0.56865462E-01 0.22106541E+03</pdfrwt>
<pdfrwt beam="2">  1       21 0.24788643E-01 0.22106541E+03</pdfrwt>
<totfact> 0.44119446E+04</totfact>
</mgrwt>
</event>
<event>
 4    1  0.4263413E+000  0.2264280E+03  0.7546771E-02  0.1129179E+00
         21   -1    0    0  501  502  0.00000000000E+00  0.00000000000E+00  0.18212637270E+04  0.18212637270E+04  0.00000000000E+00 0. -1.
         21   -1    0    0  502  503 -0.00000000000E+00 -0.00000000000E+00 -0.42339922923E+02  0.42339922923E+02  0.00000000000E+00 0.  1.
          6    1    1    2  501    0 -0.14586017541E+03  0.80903793958E+01  0.14288850057E+04  0.14467142096E+04  0.17300000000E+03 0. -1.
         -6    1    1    2    0  503  0.14586017541E+03 -0.80903793958E+01  0.35003879840E+03  0.41688944025E+03  0.17300000000E+03 0.  1.
<mgrwt>
<rscale>  2 0.22642801E+03</rscale>
<asrwt>0</asrwt>
<pdfrwt beam="1">  1       21 0.28019436E+00 0.22642801E+03</pdfrwt>
<pdfrwt beam="2">  1       21 0.65138357E-02 0.22642801E+03</pdfrwt>
<totfact> 0.73488845E+03</totfact>
</mgrwt>
</event>
<event>
 4    1  0.4263413E+000  0.1835432E+03  0.7546771E-02  0.1164417E+00
         21   -1    0    0  501  502  0.00000000000E+00  0.00000000000E+00  0.48369584389E+03  0.48369584389E+03  0.00000000000E+00 0. -1.
         21   -1    0    0  502  503 -0.00000000000E+00 -0.00000000000E+00 -0.82651935121E+02  0.82651935121E+02  0.00000000000E+00 0. -1.
          6    1    1    2  501    0  0.28491477104E+02 -0.54289314766E+02  0.31284692578E+03  0.36271378928E+03  0.17300000000E+03 0. -1.
         -6    1    1    2    0  503 -0.28491477104E+02  0.54289314766E+02  0.88196982992E+02  0.20363398973E+03  0.17300000000E+03 0. -1.
<mgrwt>
<rscale>  2 0.18354317E+03</rscale>
<asrwt>0</asrwt>
<pdfrwt beam="1">  1       21 0.74414743E-01 0.18354317E+03</pdfrwt>
<pdfrwt beam="2">  1       21 0.12715683E-01 0.18354317E+03</pdfrwt>
<totfact> 0.85897811E+04</totfact>
</mgrwt>
</event>
<event>
 4    1  0.4263413E+000  0.2142669E+03  0.7546771E-02  0.1138231E+00
         21   -1    0    0  503  502  0.00000000000E+00  0.00000000000E+00  0.25183238705E+03  0.25183238705E+03  0.00000000000E+00 0.  1.
         21   -1    0    0  501  503 -0.00000000000E+00 -0.00000000000E+00 -0.36053251118E+03  0.36053251118E+03  0.00000000000E+00 0.  1.
          6    1    1    2  501    0 -0.32412472955E+02  0.12219144443E+03 -0.26962594470E+03  0.34439580071E+03  0.17300000000E+03 0.  1.
         -6    1    1    2    0  502  0.32412472955E+02 -0.12219144443E+03  0.16092582057E+03  0.26796909751E+03  0.17300000000E+03 0.  1.
<mgrwt>
<rscale>  2 0.21426693E+03</rscale>
<asrwt>0</asrwt>
<pdfrwt beam="1">  1       21 0.38743444E-01 0.21426693E+03</pdfrwt>
<pdfrwt beam="2">  1       21 0.55466540E-01 0.21426693E+03</pdfrwt>
<totfact> 0.19430942E+04</totfact>
</mgrwt>
</event>
<event>
 4    1  0.4263413E+000  0.2188393E+03  0.7546771E-02  0.1134751E+00
         21   -1    0    0  503  502  0.00000000000E+00  0.00000000000E+00  0.68530724889E+03  0.68530724889E+03  0.00000000000E+00 0. -1.
         21   -1    0    0  501  503 -0.00000000000E+00 -0.00000000000E+00 -0.19682124711E+03  0.19682124711E+03  0.00000000000E+00 0. -1.
          6    1    1    2  501    0 -0.85614868062E+02 -0.10311023806E+03 -0.10996948117E+03  0.24491613588E+03  0.17300000000E+03 0. -1.
         -6    1    1    2    0  502  0.85614868062E+02  0.10311023806E+03  0.59845548295E+03  0.63721236012E+03  0.17300000000E+03 0. -1.
<mgrwt>
<rscale>  2 0.21883927E+03</rscale>
<asrwt>0</asrwt>
<pdfrwt beam="1">  1       21 0.10543188E+00 0.21883927E+03</pdfrwt>
<pdfrwt beam="2">  1       21 0.30280192E-01 0.21883927E+03</pdfrwt>
<totfact> 0.74287384E+03</totfact>
</mgrwt>
</event>
<event>
 4    1  0.4263413E+000  0.2004389E+03  0.7546771E-02  0.1149369E+00
         21   -1    0    0  501  502  0.00000000000E+00  0.00000000000E+00  0.18131939053E+03  0.18131939053E+03  0.00000000000E+00 0.  1.
         21   -1    0    0  502  503 -0.00000000000E+00 -0.00000000000E+00 -0.24918687124E+03  0.24918687124E+03  0.00000000000E+00 0.  1.
          6    1    1    2  501    0  0.47329914395E+02 -0.89479692405E+02  0.37720103677E+02  0.20395720721E+03  0.17300000000E+03 0.  1.
         -6    1    1    2    0  503 -0.47329914395E+02  0.89479692405E+02 -0.10558758439E+03  0.22654905457E+03  0.17300000000E+03 0.  1.
<mgrwt>
<rscale>  2 0.20043886E+03</rscale>
<asrwt>0</asrwt>
<pdfrwt beam="1">  1       21 0.27895291E-01 0.20043886E+03</pdfrwt>
<pdfrwt beam="2">  1       21 0.38336442E-01 0.20043886E+03</pdfrwt>
<totfact> 0.80254630E+04</totfact>
</mgrwt>
</event>
<event>
 4    1  0.4263413E+000  0.2961553E+03  0.7546771E-02  0.1087178E+00
         21   -1    0    0  501  502  0.00000000000E+00  0.00000000000E+00  0.73050693483E+03  0.73050693483E+03  0.00000000000E+00 0. -1.
         21   -1    0    0  502  503 -0.00000000000E+00 -0.00000000000E+00 -0.15151631239E+03  0.15151631239E+03  0.00000000000E+00 0.  1.
          6    1    1    2  501    0  0.14569544103E+03 -0.19118530812E+03  0.88566201504E+02  0.30911479361E+03  0.17300000000E+03 0.  1.
         -6    1    1    2    0  503 -0.14569544103E+03  0.19118530812E+03  0.49042442094E+03  0.57290845362E+03  0.17300000000E+03 0. -1.
<mgrwt>
<rscale>  2 0.29615534E+03</rscale>
<asrwt>0</asrwt>
<pdfrwt beam="1">  1       21 0.11238568E+00 0.29615534E+03</pdfrwt>
<pdfrwt beam="2">  1       21 0.23310202E-01 0.29615534E+03</pdfrwt>
<totfact> 0.10095518E+04</totfact>
</mgrwt>
</event>
<event>
 4    1  0.4263413E+000  0.1929773E+03  0.7546771E-02  0.1155803E+00
         21   -1    0    0  503  502  0.00000000000E+00  0.00000000000E+00  0.23961495759E+03  0.23961495759E+03  0.00000000000E+00 0. -1.
         21   -1    0    0  501  503 -0.00000000000E+00 -0.00000000000E+00 -0.62111744423E+03  0.62111744423E+03  0.00000000000E+00 0. -1.
          6    1    1    2  501    0 -0.52511213263E+02  0.67481876074E+02 -0.56340425230E+03  0.59553722187E+03  0.17300000000E+03 0. -1.
         -6    1    1    2    0  502  0.52511213263E+02 -0.67481876074E+02  0.18190176566E+03  0.26519517995E+03  0.17300000000E+03 0. -1.
<mgrwt>
<rscale>  2 0.19297728E+03</rscale>
<asrwt>0</asrwt>
<pdfrwt beam="1">  1       21 0.36863841E-01 0.19297728E+03</pdfrwt>
<pdfrwt beam="2">  1       21 0.95556527E-01 0.19297728E+03</pdfrwt>
<totfact> 0.64837590E+03</totfact>
</mgrwt>
</event>
<event>
 4    1  0.4263413E+000  0.1995673E+03  0.7546771E-02  0.1150105E+00
         21   -1    0    0  503  502  0.00000000000E+00  0.00000000000E+00  0.29927956724E+03  0.29927956724E+03  0.00000000000E+00 0. -1.
         21   -1    0    0  501  503 -0.00000000000E+00 -0.00000000000E+00 -0.19429104772E+03  0.19429104772E+03  0.00000000000E+00 0.  1.
          6    1    1    2  501    0 -0.45076993418E+02 -0.88691381936E+02 -0.86028137744E+02  0.21731989566E+03  0.17300000000E+03 0.  1.
         -6    1    1    2    0  502  0.45076993418E+02  0.88691381936E+02  0.19101665726E+03  0.27625071930E+03  0.17300000000E+03 0. -1.
<mgrwt>
<rscale>  2 0.19956727E+03</rscale>
<asrwt>0</asrwt>
<pdfrwt beam="1">  1       21 0.46043011E-01 0.19956727E+03</pdfrwt>
<pdfrwt beam="2">  1       21 0.29890930E-01 0.19956727E+03</pdfrwt>
<totfact> 0.48349518E+04</totfact>
</mgrwt>
</event>
<event>
 4    1  0.4263413E+000  0.3214217E+03  0.7546771E-02  0.1074997E+00
         21   -1    0    0  503  502  0.00000000000E+00  0.00000000000E+00  0.48377006566E+03  0.48377006566E+03  0.00000000000E+00 0.  1.
         21   -1    0    0  501  503 -0.00000000000E+00 -0.00000000000E+00 -0.22236963708E+03  0.22236963708E+03  0.00000000000E+00 0.  1.
          6    1    1    2  501    0 -0.25730937507E+03 -0.84704272361E+02  0.20099192836E+03  0.37909060068E+03  0.17300000000E+03 0.  1.
         -6    1    1    2    0  502  0.25730937507E+03  0.84704272361E+02  0.60408500215E+02  0.32704910206E+03  0.17300000000E+03 0.  1.
<mgrwt>
<rscale>  2 0.32142173E+03</rscale>
<asrwt>0</asrwt>
<pdfrwt beam="1">  1       21 0.74426164E-01 0.32142173E+03</pdfrwt>
<pdfrwt beam="2">  1       21 0.34210713E-01 0.32142173E+03</pdfrwt>
<totfact> 0.12450121E+04</totfact>
</mgrwt>
</event>
<event>
 4    1  0.4263413E+000  0.2203592E+03  0.7546771E-02  0.1133616E+00
         21   -1    0    0  503  502  0.00000000000E+00  0.00000000000E+00  0.16077760987E+03  0.16077760987E+03  0.00000000000E+00 0. -1.
         21   -1    0    0  501  503 -0.00000000000E+00 -0.00000000000E+00 -0.30580999288E+03  0.30580999288E+03  0.00000000000E+00 0. -1.
          6    1    1    2  501    0  0.66912592562E+02  0.11896169920E+03 -0.98484952605E+02  0.24136583605E+03  0.17300000000E+03 0. -1.
         -6    1    1    2    0  502 -0.66912592562E+02 -0.11896169920E+03 -0.46547430410E+02  0.22522176671E+03  0.17300000000E+03 0. -1.
<mgrwt>
<rscale>  2 0.22035921E+03</rscale>
<asrwt>0</asrwt>
<pdfrwt beam="1">  1       21 0.24735017E-01 0.22035921E+03</pdfrwt>
<pdfrwt beam="2">  1       21 0.47047690E-01 0.22035921E+03</pdfrwt>
<totfact> 0.66020831E+04</totfact>
</mgrwt>
</event>
<event>
 4    1  0.4263413E+000  0.1876615E+03  0.7546771E-02  0.1160588E+00
         21   -1    0    0  501  502  0.00000000000E+00  0.00000000000E+00  0.43148354226E+03  0.43148354226E+03  0.00000000000E+00 0. -1.
         21   -1    0    0  502  503 -0.00000000000E+00 -0.00000000000E+00 -0.10480526539E+03  0.10480526539E+03  0.00000000000E+00 0. -1.
          6    1    1    2  501    0 -0.71095586533E+02 -0.15272164609E+02  0.28946437774E+03  0.34497311115E+03  0.17300000000E+03 0. -1.
         -6    1    1    2    0  503  0.71095586533E+02  0.15272164609E+02  0.37213899127E+02  0.19131569649E+03  0.17300000000E+03 0. -1.
<mgrwt>
<rscale>  2 0.18766145E+03</rscale>
<asrwt>0</asrwt>
<pdfrwt beam="1">  1       21 0.66382083E-01 0.18766145E+03</pdfrwt>
<pdfrwt beam="2">  1       21 0.16123887E-01 0.18766145E+03</pdfrwt>
<totfact> 0.71722636E+04</totfact>
</mgrwt>
</event>
<event>
 4    1  0.4263413E+000  0.2959729E+03  0.7546771E-02  0.1087271E+00
         21   -1    0    0  503  502  0.00000000000E+00  0.00000000000E+00  0.11739449618E+03  0.11739449618E+03  0.00000000000E+00 0. -1.
         21   -1    0    0  501  503 -0.00000000000E+00 -0.00000000000E+00 -0.77901214769E+03  0.77901214769E+03  0.00000000000E+00 0. -1.
          6    1    1    2  501    0  0.23558721310E+03 -0.46579171139E+02 -0.23882529522E+03  0.38031233979E+03  0.17300000000E+03 0. -1.
         -6    1    1    2    0  502 -0.23558721310E+03  0.46579171139E+02 -0.42279235629E+03  0.51609430407E+03  0.17300000000E+03 0. -1.
<mgrwt>
<rscale>  2 0.29597289E+03</rscale>
<asrwt>0</asrwt>
<pdfrwt beam="1">  1       21 0.18060691E-01 0.29597289E+03</pdfrwt>
<pdfrwt beam="2">  1       21 0.11984803E+00 0.29597289E+03</pdfrwt>
<totfact> 0.13947479E+04</totfact>
</mgrwt>
</event>
<event>
 4    1  0.4263413E+000  0.1749332E+03  0.7546771E-02  0.1172799E+00
         21   -1    0    0  503  502  0.00000000000E+00  0.00000000000E+00  0.18666471358E+03  0.18666471358E+03  0.00000000000E+00 0. -1.
         21   -1    0    0  501  503 -0.00000000000E+00 -0.00000000000E+00 -0.17522529736E+03  0.17522529736E+03  0.00000000000E+00 0. -1.
          6    1    1    2  501    0  0.25873324462E+02 -0.17866457150E+01 -0.40202684167E+02  0.17949338939E+03  0.17300000000E+03 0. -1.
         -6    1    1    2    0  502 -0.25873324462E+02  0.17866457150E+01  0.51642100388E+02  0.18239662155E+03  0.17300000000E+03 0. -1.
<mgrwt>
<rscale>  2 0.17493319E+03</rscale>
<asrwt>0</asrwt>
<pdfrwt beam="1">  1       21 0.28717648E-01 0.17493319E+03</pdfrwt>
<pdfrwt beam="2">  1       21 0.26957738E-01 0.17493319E+03</pdfrwt>
<totfact> 0.15293868E+05</totfact>
</mgrwt>
</event>
<event>
 4    1  0.4263413E+000  0.1736359E+03  0.7546771E-02  0.1174108E+00
         21   -1    0    0  501  502  0.00000000000E+00  0.00000000000E+00  0.47559421073E+03  0.47559421073E+03  0.00000000000E+00 0. -1.
         21   -1    0    0  502  503 -0.00000000000E+00 -0.00000000000E+00 -0.70418810853E+02  0.70418810853E+02  0.00000000000E+00 0. -1.
          6    1    1    2  501    0  0.12186692890E+02  0.84809319172E+01  0.11635528946E+03  0.20901673396E+03  0.17300000000E+03 0. -1.
         -6    1    1    2    0  503 -0.12186692890E+02 -0.84809319172E+01  0.28882011041E+03  0.33699628762E+03  0.17300000000E+03 0. -1.
<mgrwt>
<rscale>  2 0.17363595E+03</rscale>
<asrwt>0</asrwt>
<pdfrwt beam="1">  1       21 0.73168338E-01 0.17363595E+03</pdfrwt>
<pdfrwt beam="2">  1       21 0.10833664E-01 0.17363595E+03</pdfrwt>
<totfact> 0.11913229E+05</totfact>
</mgrwt>
</event>
<event>
 4    1  0.4263413E+000  0.1819209E+03  0.7546771E-02  0.1165957E+00
         21   -1    0    0  503  502  0.00000000000E+00  0.00000000000E+00  0.56542737759E+03  0.56542737759E+03  0.00000000000E+00 0.  1.
         21   -1    0    0  501  503 -0.00000000000E+00 -0.00000000000E+00 -0.65592078256E+02  0.65592078256E+02  0.00000000000E+00 0.  1.
          6    1    1    2  501    0  0.22822968780E+02 -0.51432904460E+02  0.14640066839E+03  0.23351314153E+03  0.17300000000E+03 0.  1.
         -6    1    1    2    0  502 -0.22822968780E+02  0.51432904460E+02  0.35343463095E+03  0.39750631432E+03  0.17300000000E+03 0.  1.
<mgrwt>
<rscale>  2 0.18192095E+03</rscale>
<asrwt>0</asrwt>
<pdfrwt beam="1">  1       21 0.86988824E-01 0.18192095E+03</pdfrwt>
<pdfrwt beam="2">  1       21 0.10091089E-01 0.18192095E+03</pdfrwt>
<totfact> 0.91144731E+04</totfact>
</mgrwt>
</event>
<event>
 4    1  0.4263413E+000  0.1951694E+03  0.7546771E-02  0.1153880E+00
         21   -1    0    0  501  502  0.00000000000E+00  0.00000000000E+00  0.45304717492E+02  0.45304717492E+02  0.00000000000E+00 0.  1.
         21   -1    0    0  502  503 -0.00000000000E+00 -0.00000000000E+00 -0.85783382397E+03  0.85783382397E+03  0.00000000000E+00 0.  1.
          6    1    1    2  501    0  0.28659938888E+02 -0.85677906117E+02 -0.46994281557E+03  0.50885886609E+03  0.17300000000E+03 0.  1.
         -6    1    1    2    0  503 -0.28659938888E+02  0.85677906117E+02 -0.34258629092E+03  0.39427967538E+03  0.17300000000E+03 0.  1.
<mgrwt>
<rscale>  2 0.19516940E+03</rscale>
<asrwt>0</asrwt>
<pdfrwt beam="1">  1       21 0.69699573E-02 0.19516940E+03</pdfrwt>
<pdfrwt beam="2">  1       21 0.13197442E+00 0.19516940E+03</pdfrwt>
<totfact> 0.63329588E+04</totfact>
</mgrwt>
</event>
<event>
 4    1  0.4263413E+000  0.2566948E+03  0.7546771E-02  0.1109145E+00
         21   -1    0    0  503  502  0.00000000000E+00  0.00000000000E+00  0.49639783873E+02  0.49639783873E+02  0.00000000000E+00 0. -1.
         21   -1    0    0  501  503 -0.00000000000E+00 -0.00000000000E+00 -0.13812994175E+04  0.13812994175E+04  0.00000000000E+00 0.  1.
          6    1    1    2  501    0 -0.18538493471E+03  0.39945424295E+02 -0.80715187041E+03  0.84698663086E+03  0.17300000000E+03 0.  1.
         -6    1    1    2    0  502  0.18538493471E+03 -0.39945424295E+02 -0.52450776322E+03  0.58395257052E+03  0.17300000000E+03 0. -1.
<mgrwt>
<rscale>  2 0.25669478E+03</rscale>
<asrwt>0</asrwt>
<pdfrwt beam="1">  1       21 0.76368899E-02 0.25669478E+03</pdfrwt>
<pdfrwt beam="2">  1       21 0.21250760E+00 0.25669478E+03</pdfrwt>
<totfact> 0.13892231E+04</totfact>
</mgrwt>
</event>
<event>
 4    1  0.4263413E+000  0.2110954E+03  0.7546771E-02  0.1140701E+00
         21   -1    0    0  501  502  0.00000000000E+00  0.00000000000E+00  0.79071002817E+02  0.79071002817E+02  0.00000000000E+00 0. -1.
         21   -1    0    0  502  503 -0.00000000000E+00 -0.00000000000E+00 -0.70580574235E+03  0.70580574235E+03  0.00000000000E+00 0. -1.
          6    1    1    2  501    0 -0.87470157200E+02  0.83553881686E+02 -0.13719085107E+03  0.25175902996E+03  0.17300000000E+03 0. -1.
         -6    1    1    2    0  503  0.87470157200E+02 -0.83553881686E+02 -0.48954388846E+03  0.53311771521E+03  0.17300000000E+03 0. -1.
<mgrwt>
<rscale>  2 0.21109543E+03</rscale>
<asrwt>0</asrwt>
<pdfrwt beam="1">  1       21 0.12164770E-01 0.21109543E+03</pdfrwt>
<pdfrwt beam="2">  1       21 0.10858550E+00 0.21109543E+03</pdfrwt>
<totfact> 0.38203966E+04</totfact>
</mgrwt>
</event>
<event>
 4    1  0.4263413E+000  0.1759231E+03  0.7546771E-02  0.1171808E+00
         21   -1    0    0  503  502  0.00000000000E+00  0.00000000000E+00  0.28683681186E+03  0.28683681186E+03  0.00000000000E+00 0.  1.
         21   -1    0    0  501  503 -0.00000000000E+00 -0.00000000000E+00 -0.17150910249E+03  0.17150910249E+03  0.00000000000E+00 0.  1.
          6    1    1    2  501    0  0.31274673480E+02 -0.64690905224E+01 -0.81904897167E+02  0.19405506052E+03  0.17300000000E+03 0.  1.
         -6    1    1    2    0  502 -0.31274673480E+02  0.64690905224E+01  0.19723260654E+03  0.26429085383E+03  0.17300000000E+03 0.  1.
<mgrwt>
<rscale>  2 0.17592315E+03</rscale>
<asrwt>0</asrwt>
<pdfrwt beam="1">  1       21 0.44128740E-01 0.17592315E+03</pdfrwt>
<pdfrwt beam="2">  1       21 0.26386016E-01 0.17592315E+03</pdfrwt>
<totfact> 0.67868151E+04</totfact>
</mgrwt>
</event>
<event>
 4    1  0.4263413E+000  0.1793475E+03  0.7546771E-02  0.1168436E+00
         21   -1    0    0  501  502  0.00000000000E+00  0.00000000000E+00  0.97878645200E+02  0.97878645200E+02  0.00000000000E+00 0. -1.
         21   -1    0    0  502  503 -0.00000000000E+00 -0.00000000000E+00 -0.65831921701E+03  0.65831921701E+03  0.00000000000E+00 0.  1.
          6    1    1    2  501    0 -0.46415382346E+02  0.90639740897E+01 -0.12647660448E+02  0.17979295498E+03  0.17300000000E+03 0. -1.
         -6    1    1    2    0  503  0.46415382346E+02 -0.90639740897E+01 -0.54779291136E+03  0.57640490724E+03  0.17300000000E+03 0.  1.
<mgrwt>
<rscale>  2 0.17934755E+03</rscale>
<asrwt>0</asrwt>
<pdfrwt beam="1">  1       21 0.15058253E-01 0.17934755E+03</pdfrwt>
<pdfrwt beam="2">  1       21 0.10127988E+00 0.17934755E+03</pdfrwt>
<totfact> 0.31257845E+04</totfact>
</mgrwt>
</event>
<event>
 4    1  0.4263413E+000  0.2247046E+03  0.7546771E-02  0.1130423E+00
         21   -1    0    0  501  502  0.00000000000E+00  0.00000000000E+00  0.68025466270E+03  0.68025466270E+03  0.00000000000E+00 0. -1.
         21   -1    0    0  502  503 -0.00000000000E+00 -0.00000000000E+00 -0.14156729345E+03  0.14156729345E+03  0.00000000000E+00 0. -1.
          6    1    1    2  501    0  0.13858243524E+03 -0.36852102160E+02 -0.14062268132E+02  0.22514421195E+03  0.17300000000E+03 0. -1.
         -6    1    1    2    0  503 -0.13858243524E+03  0.36852102160E+02  0.55274963738E+03  0.59667774419E+03  0.17300000000E+03 0. -1.
<mgrwt>
<rscale>  2 0.22470463E+03</rscale>
<asrwt>0</asrwt>
<pdfrwt beam="1">  1       21 0.10465456E+00 0.22470463E+03</pdfrwt>
<pdfrwt beam="2">  1       21 0.21779584E-01 0.22470463E+03</pdfrwt>
<totfact> 0.14193631E+04</totfact>
</mgrwt>
</event>
<event>
 4    1  0.4263413E+000  0.3006328E+03  0.7546771E-02  0.1084925E+00
         21   -1    0    0  501  502  0.00000000000E+00  0.00000000000E+00  0.51167632573E+03  0.51167632573E+03  0.00000000000E+00 0.  1.
         21   -1    0    0  502  503 -0.00000000000E+00 -0.00000000000E+00 -0.21533958439E+03  0.21533958439E+03  0.00000000000E+00 0. -1.
          6    1    1    2  501    0  0.23090516425E+03  0.84462242124E+02 -0.59420127044E+01  0.30069149096E+03  0.17300000000E+03 0.  1.
         -6    1    1    2    0  503 -0.23090516425E+03 -0.84462242124E+02  0.30227875405E+03  0.42632441916E+03  0.17300000000E+03 0.  1.
<mgrwt>
<rscale>  2 0.30063277E+03</rscale>
<asrwt>0</asrwt>
<pdfrwt beam="1">  1       21 0.78719435E-01 0.30063277E+03</pdfrwt>
<pdfrwt beam="2">  1       21 0.33129167E-01 0.30063277E+03</pdfrwt>
<totfact> 0.11792250E+04</totfact>
</mgrwt>
</event>
<event>
 4    1  0.4263413E+000  0.2287286E+03  0.7546771E-02  0.1127538E+00
         21   -1    0    0  503  502  0.00000000000E+00  0.00000000000E+00  0.15973297422E+03  0.15973297422E+03  0.00000000000E+00 0.  1.
         21   -1    0    0  501  503 -0.00000000000E+00 -0.00000000000E+00 -0.69071547366E+03  0.69071547366E+03  0.00000000000E+00 0. -1.
          6    1    1    2  501    0  0.71276458400E+02 -0.13155771257E+03 -0.57383474748E+03  0.61774030359E+03  0.17300000000E+03 0. -1.
         -6    1    1    2    0  502 -0.71276458400E+02  0.13155771257E+03  0.42852248044E+02  0.23270814429E+03  0.17300000000E+03 0.  1.
<mgrwt>
<rscale>  2 0.22872858E+03</rscale>
<asrwt>0</asrwt>
<pdfrwt beam="1">  1       21 0.24574304E-01 0.22872858E+03</pdfrwt>
<pdfrwt beam="2">  1       21 0.10626392E+00 0.22872858E+03</pdfrwt>
<totfact> 0.10847221E+04</totfact>
</mgrwt>
</event>
<event>
 4    1  0.4263413E+000  0.2043238E+03  0.7546771E-02  0.1146141E+00
         21   -1    0    0  503  502  0.00000000000E+00  0.00000000000E+00  0.91879328147E+03  0.91879328147E+03  0.00000000000E+00 0.  1.
         21   -1    0    0  501  503 -0.00000000000E+00 -0.00000000000E+00 -0.52285059971E+02  0.52285059971E+02  0.00000000000E+00 0.  1.
          6    1    1    2  501    0 -0.63030557919E+02  0.88579764009E+02  0.25754908051E+03  0.32875485502E+03  0.17300000000E+03 0. -1.
         -6    1    1    2    0  502  0.63030557919E+02 -0.88579764009E+02  0.60895914098E+03  0.64232348642E+03  0.17300000000E+03 0. -1.
<mgrwt>
<rscale>  2 0.20432383E+03</rscale>
<asrwt>0</asrwt>
<pdfrwt beam="1">  1       21 0.14135280E+00 0.20432383E+03</pdfrwt>
<pdfrwt beam="2">  1       21 0.80438560E-02 0.20432383E+03</pdfrwt>
<totfact> 0.41209373E+04</totfact>
</mgrwt>
</event>
<event>
 4    1  0.4263413E+000  0.2743563E+03  0.7546771E-02  0.1098812E+00
         21   -1    0    0  501  502  0.00000000000E+00  0.00000000000E+00  0.16999642233E+03  0.16999642233E+03  0.00000000000E+00 0. -1.
         21   -1    0    0  502  503 -0.00000000000E+00 -0.00000000000E+00 -0.51075577241E+03  0.51075577241E+03  0.00000000000E+00 0.  1.
          6    1    1    2  501    0  0.16325903228E+03  0.13670723234E+03 -0.29455138584E+03  0.40253185948E+03  0.17300000000E+03 0. -1.
         -6    1    1    2    0  503 -0.16325903228E+03 -0.13670723234E+03 -0.46207964234E+02  0.27822033526E+03  0.17300000000E+03 0.  1.
<mgrwt>
<rscale>  2 0.27435630E+03</rscale>
<asrwt>0</asrwt>
<pdfrwt beam="1">  1       21 0.26153296E-01 0.27435630E+03</pdfrwt>
<pdfrwt beam="2">  1       21 0.78577810E-01 0.27435630E+03</pdfrwt>
<totfact> 0.19055860E+04</totfact>
</mgrwt>
</event>
<event>
 4    1  0.4263413E+000  0.2066796E+03  0.7546771E-02  0.1144223E+00
         21   -1    0    0  501  502  0.00000000000E+00  0.00000000000E+00  0.69466107024E+02  0.69466107024E+02  0.00000000000E+00 0.  1.
         21   -1    0    0  502  503 -0.00000000000E+00 -0.00000000000E+00 -0.74135093419E+03  0.74135093419E+03  0.00000000000E+00 0.  1.
          6    1    1    2  501    0 -0.99130353129E+02  0.54411728485E+02 -0.16852577730E+03  0.26667845943E+03  0.17300000000E+03 0.  1.
         -6    1    1    2    0  503  0.99130353129E+02 -0.54411728485E+02 -0.50335904987E+03  0.54413858179E+03  0.17300000000E+03 0.  1.
<mgrwt>
<rscale>  2 0.20667961E+03</rscale>
<asrwt>0</asrwt>
<pdfrwt beam="1">  1       21 0.10687093E-01 0.20667961E+03</pdfrwt>
<pdfrwt beam="2">  1       21 0.11405399E+00 0.20667961E+03</pdfrwt>
<totfact> 0.42825178E+04</totfact>
</mgrwt>
</event>
<event>
 4    1  0.4263413E+000  0.4567422E+03  0.7546771E-02  0.1025730E+00
         21   -1    0    0  503  502  0.00000000000E+00  0.00000000000E+00  0.48384775401E+03  0.48384775401E+03  0.00000000000E+00 0. -1.
         21   -1    0    0  501  503 -0.00000000000E+00 -0.00000000000E+00 -0.68836757166E+03  0.68836757166E+03  0.00000000000E+00 0.  1.
          6    1    1    2  501    0  0.42181929670E+03  0.27439411818E+02 -0.46053217069E+03  0.64861646651E+03  0.17300000000E+03 0.  1.
         -6    1    1    2    0  502 -0.42181929670E+03 -0.27439411818E+02  0.25601235304E+03  0.52359885915E+03  0.17300000000E+03 0. -1.
<mgrwt>
<rscale>  2 0.45674220E+03</rscale>
<asrwt>0</asrwt>
<pdfrwt beam="1">  1       21 0.74438116E-01 0.45674220E+03</pdfrwt>
<pdfrwt beam="2">  1       21 0.10590270E+00 0.45674220E+03</pdfrwt>
<totfact> 0.98033068E+02</totfact>
</mgrwt>
</event>
<event>
 4    1  0.4263413E+000  0.2989411E+03  0.7546771E-02  0.1085771E+00
         21   -1    0    0  503  502  0.00000000000E+00  0.00000000000E+00  0.85814456742E+02  0.85814456742E+02  0.00000000000E+00 0. -1.
         21   -1    0    0  501  503 -0.00000000000E+00 -0.00000000000E+00 -0.12955801419E+04  0.12955801419E+04  0.00000000000E+00 0.  1.
          6    1    1    2  501    0  0.55001817531E+02 -0.23751120970E+03 -0.91082573491E+03  0.95862886147E+03  0.17300000000E+03 0.  1.
         -6    1    1    2    0  502 -0.55001817531E+02  0.23751120970E+03 -0.29893995022E+03  0.42276573714E+03  0.17300000000E+03 0. -1.
<mgrwt>
<rscale>  2 0.29894109E+03</rscale>
<asrwt>0</asrwt>
<pdfrwt beam="1">  1       21 0.13202225E-01 0.29894109E+03</pdfrwt>
<pdfrwt beam="2">  1       21 0.19932001E+00 0.29894109E+03</pdfrwt>
<totfact> 0.62061303E+03</totfact>
</mgrwt>
</event>
<event>
 4    1  0.4263413E+000  0.2273326E+03  0.7546771E-02  0.1128531E+00
         21   -1    0    0  501  502  0.00000000000E+00  0.00000000000E+00  0.72883909199E+03  0.72883909199E+03  0.00000000000E+00 0. -1.
         21   -1    0    0  502  503 -0.00000000000E+00 -0.00000000000E+00 -0.18415601289E+03  0.18415601289E+03  0.00000000000E+00 0. -1.
          6    1    1    2  501    0  0.12980994611E+03  0.70003519363E+02  0.63032409905E+03  0.67006610470E+03  0.17300000000E+03 0. -1.
         -6    1    1    2    0  503 -0.12980994611E+03 -0.70003519363E+02 -0.85641019951E+02  0.24292900018E+03  0.17300000000E+03 0. -1.
<mgrwt>
<rscale>  2 0.22733261E+03</rscale>
<asrwt>0</asrwt>
<pdfrwt beam="1">  1       21 0.11212909E+00 0.22733261E+03</pdfrwt>
<pdfrwt beam="2">  1       21 0.28331695E-01 0.22733261E+03</pdfrwt>
<totfact> 0.72421235E+03</totfact>
</mgrwt>
</event>
<event>
 4    1  0.4263413E+000  0.2194919E+03  0.7546771E-02  0.1134262E+00
         21   -1    0    0  501  502  0.00000000000E+00  0.00000000000E+00  0.13388121008E+04  0.13388121008E+04  0.00000000000E+00 0. -1.
         21   -1    0    0  502  503 -0.00000000000E+00 -0.00000000000E+00 -0.10410710808E+03  0.10410710808E+03  0.00000000000E+00 0. -1.
          6    1    1    2  501    0 -0.39106356139E+02 -0.12929957586E+03  0.12009547726E+04  0.12208476782E+04  0.17300000000E+03 0. -1.
         -6    1    1    2    0  503  0.39106356139E+02  0.12929957586E+03  0.33750220120E+02  0.22207153074E+03  0.17300000000E+03 0. -1.
<mgrwt>
<rscale>  2 0.21949188E+03</rscale>
<asrwt>0</asrwt>
<pdfrwt beam="1">  1       21 0.20597108E+00 0.21949188E+03</pdfrwt>
<pdfrwt beam="2">  1       21 0.16016479E-01 0.21949188E+03</pdfrwt>
<totfact> 0.41767744E+03</totfact>
</mgrwt>
</event>
<event>
 4    1  0.4263413E+000  0.1765147E+03  0.7546771E-02  0.1171219E+00
         21   -1    0    0  503  502  0.00000000000E+00  0.00000000000E+00  0.14208518127E+03  0.14208518127E+03  0.00000000000E+00 0. -1.
         21   -1    0    0  501  503 -0.00000000000E+00 -0.00000000000E+00 -0.24685914495E+03  0.24685914495E+03  0.00000000000E+00 0. -1.
          6    1    1    2  501    0  0.18313100749E+01 -0.35001357634E+02 -0.11738008109E+03  0.21198002776E+03  0.17300000000E+03 0. -1.
         -6    1    1    2    0  502 -0.18313100749E+01  0.35001357634E+02  0.12606117404E+02  0.17696429846E+03  0.17300000000E+03 0. -1.
<mgrwt>
<rscale>  2 0.17651473E+03</rscale>
<asrwt>0</asrwt>
<pdfrwt beam="1">  1       21 0.21859259E-01 0.17651473E+03</pdfrwt>
<pdfrwt beam="2">  1       21 0.37978330E-01 0.17651473E+03</pdfrwt>
<totfact> 0.13135771E+05</totfact>
</mgrwt>
</event>
<event>
 4    1  0.4263413E+000  0.2151405E+03  0.7546771E-02  0.1137559E+00
         21   -1    0    0  503  502  0.00000000000E+00  0.00000000000E+00  0.76785177398E+03  0.76785177398E+03  0.00000000000E+00 0.  1.
         21   -1    0    0  501  503 -0.00000000000E+00 -0.00000000000E+00 -0.76546184041E+02  0.76546184041E+02  0.00000000000E+00 0.  1.
          6    1    1    2  501    0  0.34122969790E+02 -0.12325605629E+03  0.15102272545E+03  0.26285603680E+03  0.17300000000E+03 0.  1.
         -6    1    1    2    0  502 -0.34122969790E+02  0.12325605629E+03  0.54028286449E+03  0.58154192122E+03  0.17300000000E+03 0.  1.
<mgrwt>
<rscale>  2 0.21514049E+03</rscale>
<asrwt>0</asrwt>
<pdfrwt beam="1">  1       21 0.11813104E+00 0.21514049E+03</pdfrwt>
<pdfrwt beam="2">  1       21 0.11776337E-01 0.21514049E+03</pdfrwt>
<totfact> 0.32897325E+04</totfact>
</mgrwt>
</event>
<event>
 4    1  0.4263413E+000  0.1826873E+03  0.7546771E-02  0.1165227E+00
         21   -1    0    0  503  502  0.00000000000E+00  0.00000000000E+00  0.13580210113E+04  0.13580210113E+04  0.00000000000E+00 0. -1.
         21   -1    0    0  501  503 -0.00000000000E+00 -0.00000000000E+00 -0.24707439011E+02  0.24707439011E+02  0.00000000000E+00 0. -1.
          6    1    1    2  501    0 -0.55381845021E+02  0.19455233286E+02  0.71709268078E+03  0.73999768087E+03  0.17300000000E+03 0.  1.
         -6    1    1    2    0  502  0.55381845021E+02 -0.19455233286E+02  0.61622089155E+03  0.64273076948E+03  0.17300000000E+03 0.  1.
<mgrwt>
<rscale>  2 0.18268731E+03</rscale>
<asrwt>0</asrwt>
<pdfrwt beam="1">  1       21 0.20892625E+00 0.18268731E+03</pdfrwt>
<pdfrwt beam="2">  1       21 0.38011455E-02 0.18268731E+03</pdfrwt>
<totfact> 0.50637121E+04</totfact>
</mgrwt>
</event>
<event>
 4    1  0.4263413E+000  0.1867811E+03  0.7546771E-02  0.1161397E+00
         21   -1    0    0  501  502  0.00000000000E+00  0.00000000000E+00  0.38180191040E+03  0.38180191040E+03  0.00000000000E+00 0. -1.
         21   -1    0    0  502  503 -0.00000000000E+00 -0.00000000000E+00 -0.15674856126E+03  0.15674856126E+03  0.00000000000E+00 0.  1.
          6    1    1    2  501    0  0.48998871680E+02  0.50569547106E+02  0.28642505623E+03  0.34194514378E+03  0.17300000000E+03 0. -1.
         -6    1    1    2    0  503 -0.48998871680E+02 -0.50569547106E+02 -0.61371707092E+02  0.19660532788E+03  0.17300000000E+03 0.  1.
<mgrwt>
<rscale>  2 0.18678107E+03</rscale>
<asrwt>0</asrwt>
<pdfrwt beam="1">  1       21 0.58738755E-01 0.18678107E+03</pdfrwt>
<pdfrwt beam="2">  1       21 0.24115163E-01 0.18678107E+03</pdfrwt>
<totfact> 0.44122833E+04</totfact>
</mgrwt>
</event>
<event>
 4    1  0.4263413E+000  0.1833742E+03  0.7546771E-02  0.1164577E+00
         21   -1    0    0  501  502  0.00000000000E+00  0.00000000000E+00  0.74793974685E+02  0.74793974685E+02  0.00000000000E+00 0.  1.
         21   -1    0    0  502  503 -0.00000000000E+00 -0.00000000000E+00 -0.56973356191E+03  0.56973356191E+03  0.00000000000E+00 0.  1.
          6    1    1    2  501    0 -0.40752966621E+02  0.45125214812E+02 -0.99477626657E+02  0.20861900083E+03  0.17300000000E+03 0. -1.
         -6    1    1    2    0  503  0.40752966621E+02 -0.45125214812E+02 -0.39546196057E+03  0.43590853577E+03  0.17300000000E+03 0. -1.
<mgrwt>
<rscale>  2 0.18337418E+03</rscale>
<asrwt>0</asrwt>
<pdfrwt beam="1">  1       21 0.11506765E-01 0.18337418E+03</pdfrwt>
<pdfrwt beam="2">  1       21 0.87651318E-01 0.18337418E+03</pdfrwt>
<totfact> 0.70922726E+04</totfact>
</mgrwt>
</event>
<event>
 4    1  0.4263413E+000  0.1878409E+03  0.7546771E-02  0.1160423E+00
         21   -1    0    0  501  502  0.00000000000E+00  0.00000000000E+00  0.14916391447E+04  0.14916391447E+04  0.00000000000E+00 0. -1.
         21   -1    0    0  502  503 -0.00000000000E+00 -0.00000000000E+00 -0.51298927376E+02  0.51298927376E+02  0.00000000000E+00 0. -1.
          6    1    1    2  501    0 -0.11768087620E+02 -0.72226920439E+02  0.12864966356E+04  0.13001376117E+04  0.17300000000E+03 0. -1.
         -6    1    1    2    0  503  0.11768087620E+02  0.72226920439E+02  0.15384358170E+03  0.24280046036E+03  0.17300000000E+03 0. -1.
<mgrwt>
<rscale>  2 0.18784093E+03</rscale>
<asrwt>0</asrwt>
<pdfrwt beam="1">  1       21 0.22948291E+00 0.18784093E+03</pdfrwt>
<pdfrwt beam="2">  1       21 0.78921438E-02 0.18784093E+03</pdfrwt>
<totfact> 0.10870295E+04</totfact>
</mgrwt>
</event>
<event>
 4    1  0.4263413E+000  0.1951713E+03  0.7546771E-02  0.1153878E+00
         21   -1    0    0  503  502  0.00000000000E+00  0.00000000000E+00  0.62420674640E+03  0.62420674640E+03  0.00000000000E+00 0. -1.
         21   -1    0    0  501  503 -0.00000000000E+00 -0.00000000000E+00 -0.10702477113E+03  0.10702477113E+03  0.00000000000E+00 0. -1.
          6    1    1    2  501    0  0.86736708021E+02  0.25290227190E+02  0.18893575540E+02  0.19608370485E+03  0.17300000000E+03 0. -1.
         -6    1    1    2    0  502 -0.86736708021E+02 -0.25290227190E+02  0.49828839974E+03  0.53514781269E+03  0.17300000000E+03 0. -1.
<mgrwt>
<rscale>  2 0.19517134E+03</rscale>
<asrwt>0</asrwt>
<pdfrwt beam="1">  1       21 0.96031805E-01 0.19517134E+03</pdfrwt>
<pdfrwt beam="2">  1       21 0.16465350E-01 0.19517134E+03</pdfrwt>
<totfact> 0.29838590E+04</totfact>
</mgrwt>
</event>
<event>
 4    1  0.4263413E+000  0.2224578E+03  0.7546771E-02  0.1132064E+00
         21   -1    0    0  501  502  0.00000000000E+00  0.00000000000E+00  0.45955121093E+03  0.45955121093E+03  0.00000000000E+00 0.  1.
         21   -1    0    0  502  503 -0.00000000000E+00 -0.00000000000E+00 -0.10781415967E+03  0.10781415967E+03  0.00000000000E+00 0.  1.
          6    1    1    2  501    0 -0.10212169423E+03  0.95548996449E+02  0.18563100171E+03  0.28973491324E+03  0.17300000000E+03 0.  1.
         -6    1    1    2    0  503  0.10212169423E+03 -0.95548996449E+02  0.16610604955E+03  0.27763045736E+03  0.17300000000E+03 0.  1.
<mgrwt>
<rscale>  2 0.22245775E+03</rscale>
<asrwt>0</asrwt>
<pdfrwt beam="1">  1       21 0.70700185E-01 0.22245775E+03</pdfrwt>
<pdfrwt beam="2">  1       21 0.16586794E-01 0.22245775E+03</pdfrwt>
<totfact> 0.58358110E+04</totfact>
</mgrwt>
</event>
<event>
 4    1  0.4263413E+000  0.2049059E+03  0.7546771E-02  0.1145665E+00
         21   -1    0    0  503  502  0.00000000000E+00  0.00000000000E+00  0.37742305816E+02  0.37742305816E+02  0.00000000000E+00 0.  1.
         21   -1    0    0  501  503 -0.00000000000E+00 -0.00000000000E+00 -0.12075705384E+04  0.12075705384E+04  0.00000000000E+00 0.  1.
          6    1    1    2  501    0  0.14854437552E+02 -0.10879702160E+03 -0.75966857739E+03  0.78681814526E+03  0.17300000000E+03 0.  1.
         -6    1    1    2    0  502 -0.14854437552E+02  0.10879702160E+03 -0.41015965515E+03  0.45849469892E+03  0.17300000000E+03 0.  1.
<mgrwt>
<rscale>  2 0.20490594E+03</rscale>
<asrwt>0</asrwt>
<pdfrwt beam="1">  1       21 0.58065089E-02 0.20490594E+03</pdfrwt>
<pdfrwt beam="2">  1       21 0.18578007E+00 0.20490594E+03</pdfrwt>
<totfact> 0.34409489E+04</totfact>
</mgrwt>
</event>
<event>
 4    1  0.4263413E+000  0.1867721E+03  0.7546771E-02  0.1161405E+00
         21   -1    0    0  501  502  0.00000000000E+00  0.00000000000E+00  0.61276344219E+02  0.61276344219E+02  0.00000000000E+00 0. -1.
         21   -1    0    0  502  503 -0.00000000000E+00 -0.00000000000E+00 -0.11433431823E+04  0.11433431823E+04  0.00000000000E+00 0. -1.
          6    1    1    2  501    0  0.21587911813E+02 -0.66998275378E+02 -0.11424864382E+03  0.21894419256E+03  0.17300000000E+03 0. -1.
         -6    1    1    2    0  503 -0.21587911813E+02  0.66998275378E+02 -0.96781819429E+03  0.98567533400E+03  0.17300000000E+03 0. -1.
<mgrwt>
<rscale>  2 0.18677207E+03</rscale>
<asrwt>0</asrwt>
<pdfrwt beam="1">  1       21 0.94271302E-02 0.18677207E+03</pdfrwt>
<pdfrwt beam="2">  1       21 0.17589894E+00 0.18677207E+03</pdfrwt>
<totfact> 0.17554412E+04</totfact>
</mgrwt>
</event>
<event>
 4    1  0.4263413E+000  0.2831096E+03  0.7546771E-02  0.1094003E+00
         21   -1    0    0  503  502  0.00000000000E+00  0.00000000000E+00  0.29150373488E+03  0.29150373488E+03  0.00000000000E+00 0.  1.
         21   -1    0    0  501  503 -0.00000000000E+00 -0.00000000000E+00 -0.29906004477E+03  0.29906004477E+03  0.00000000000E+00 0. -1.
          6    1    1    2  501    0 -0.10451718394E+03  0.19823779355E+03  0.80050276535E+02  0.29420929846E+03  0.17300000000E+03 0.  1.
         -6    1    1    2    0  502  0.10451718394E+03 -0.19823779355E+03 -0.87606586424E+02  0.29635448118E+03  0.17300000000E+03 0. -1.
<mgrwt>
<rscale>  2 0.28310963E+03</rscale>
<asrwt>0</asrwt>
<pdfrwt beam="1">  1       21 0.44846728E-01 0.28310963E+03</pdfrwt>
<pdfrwt beam="2">  1       21 0.46009238E-01 0.28310963E+03</pdfrwt>
<totfact> 0.20637897E+04</totfact>
</mgrwt>
</event>
<event>
 4    1  0.4263413E+000  0.2659379E+03  0.7546771E-02  0.1103627E+00
         21   -1    0    0  501  502  0.00000000000E+00  0.00000000000E+00  0.49625108827E+03  0.49625108827E+03  0.00000000000E+00 0. -1.
         21   -1    0    0  502  503 -0.00000000000E+00 -0.00000000000E+00 -0.23363001479E+03  0.23363001479E+03  0.00000000000E+00 0. -1.
          6    1    1    2  501    0 -0.19300134016E+03  0.59535080431E+02  0.35921568148E+03  0.44694389908E+03  0.17300000000E+03 0. -1.
         -6    1    1    2    0  503  0.19300134016E+03 -0.59535080431E+02 -0.96594607997E+02  0.28293720398E+03  0.17300000000E+03 0. -1.
<mgrwt>
<rscale>  2 0.26593786E+03</rscale>
<asrwt>0</asrwt>
<pdfrwt beam="1">  1       21 0.76346321E-01 0.26593786E+03</pdfrwt>
<pdfrwt beam="2">  1       21 0.35943079E-01 0.26593786E+03</pdfrwt>
<totfact> 0.10917016E+04</totfact>
</mgrwt>
</event>
<event>
 4    1  0.4263413E+000  0.2536567E+03  0.7546771E-02  0.1111015E+00
         21   -1    0    0  503  502  0.00000000000E+00  0.00000000000E+00  0.46311692983E+03  0.46311692983E+03  0.00000000000E+00 0.  1.
         21   -1    0    0  501  503 -0.00000000000E+00 -0.00000000000E+00 -0.24914525408E+03  0.24914525408E+03  0.00000000000E+00 0.  1.
          6    1    1    2  501    0  0.11949688545E+03  0.14189159594E+03 -0.12987901619E+03  0.28497419089E+03  0.17300000000E+03 0.  1.
         -6    1    1    2    0  502 -0.11949688545E+03 -0.14189159594E+03  0.34385069194E+03  0.42728799302E+03  0.17300000000E+03 0.  1.
<mgrwt>
<rscale>  2 0.25365672E+03</rscale>
<asrwt>0</asrwt>
<pdfrwt beam="1">  1       21 0.71248759E-01 0.25365672E+03</pdfrwt>
<pdfrwt beam="2">  1       21 0.38330039E-01 0.25365672E+03</pdfrwt>
<totfact> 0.11271168E+04</totfact>
</mgrwt>
</event>
<event>
 4    1  0.4263413E+000  0.2000855E+03  0.7546771E-02  0.1149667E+00
         21   -1    0    0  503  502  0.00000000000E+00  0.00000000000E+00  0.15377006991E+03  0.15377006991E+03  0.00000000000E+00 0. -1.
         21   -1    0    0  501  503 -0.00000000000E+00 -0.00000000000E+00 -0.40176984327E+03  0.40176984327E+03  0.00000000000E+00 0. -1.
          6    1    1    2  501    0  0.67446200787E+02  0.74539918123E+02 -0.28879725200E+03  0.35133750463E+03  0.17300000000E+03 0. -1.
         -6    1    1    2    0  502 -0.67446200787E+02 -0.74539918123E+02  0.40797478642E+02  0.20420240855E+03  0.17300000000E+03 0. -1.
<mgrwt>
<rscale>  2 0.20008546E+03</rscale>
<asrwt>0</asrwt>
<pdfrwt beam="1">  1       21 0.23656934E-01 0.20008546E+03</pdfrwt>
<pdfrwt beam="2">  1       21 0.61810745E-01 0.20008546E+03</pdfrwt>
<totfact> 0.40739054E+04</totfact>
</mgrwt>
</event>
<event>
 4    1  0.4263413E+000  0.2238596E+03  0.7546771E-02  0.1131038E+00
         21   -1    0    0  501  502  0.00000000000E+00  0.00000000000E+00  0.36387839814E+02  0.36387839814E+02  0.00000000000E+00 0. -1.
         21   -1    0    0  502  503 -0.00000000000E+00 -0.00000000000E+00 -0.15856340924E+04  0.15856340924E+04  0.00000000000E+00 0.  1.
          6    1    1    2  501    0  0.14139343580E+03  0.13856704443E+02 -0.48057667297E+03  0.53015757144E+03  0.17300000000E+03 0.  1.
         -6    1    1    2    0  503 -0.14139343580E+03 -0.13856704443E+02 -0.10686695796E+04  0.10918643608E+04  0.17300000000E+03 0.  1.
<mgrwt>
<rscale>  2 0.22385958E+03</rscale>
<asrwt>0</asrwt>
<pdfrwt beam="1">  1       21 0.55981284E-02 0.22385958E+03</pdfrwt>
<pdfrwt beam="2">  1       21 0.24394374E+00 0.22385958E+03</pdfrwt>
<totfact> 0.15608495E+04</totfact>
</mgrwt>
</event>
<event>
 4    1  0.4263413E+000  0.2140009E+03  0.7546771E-02  0.1138436E+00
         21   -1    0    0  503  502  0.00000000000E+00  0.00000000000E+00  0.94917792615E+03  0.94917792615E+03  0.00000000000E+00 0.  1.
         21   -1    0    0  501  503 -0.00000000000E+00 -0.00000000000E+00 -0.97169799486E+02  0.97169799486E+02  0.00000000000E+00 0. -1.
          6    1    1    2  501    0 -0.12419345405E+03 -0.21056176046E+02  0.54785624671E+02  0.22090233419E+03  0.17300000000E+03 0. -1.
         -6    1    1    2    0  502  0.12419345405E+03  0.21056176046E+02  0.79722250199E+03  0.82544539145E+03  0.17300000000E+03 0.  1.
<mgrwt>
<rscale>  2 0.21400088E+03</rscale>
<asrwt>0</asrwt>
<pdfrwt beam="1">  1       21 0.14602737E+00 0.21400088E+03</pdfrwt>
<pdfrwt beam="2">  1       21 0.14949201E-01 0.21400088E+03</pdfrwt>
<totfact> 0.12468219E+04</totfact>
</mgrwt>
</event>
<event>
 4    1  0.4263413E+000  0.2109365E+03  0.7546771E-02  0.1140827E+00
         21   -1    0    0  501  502  0.00000000000E+00  0.00000000000E+00  0.92668846845E+03  0.92668846845E+03  0.00000000000E+00 0. -1.
         21   -1    0    0  502  503 -0.00000000000E+00 -0.00000000000E+00 -0.50300333270E+02  0.50300333270E+02  0.00000000000E+00 0. -1.
          6    1    1    2  501    0 -0.10529905949E+03 -0.58968604847E+02  0.54233625402E+03  0.58191305254E+03  0.17300000000E+03 0. -1.
         -6    1    1    2    0  503  0.10529905949E+03  0.58968604847E+02  0.33405188116E+03  0.39507574919E+03  0.17300000000E+03 0. -1.
<mgrwt>
<rscale>  2 0.21093646E+03</rscale>
<asrwt>0</asrwt>
<pdfrwt beam="1">  1       21 0.14256744E+00 0.21093646E+03</pdfrwt>
<pdfrwt beam="2">  1       21 0.77385135E-02 0.21093646E+03</pdfrwt>
<totfact> 0.42954047E+04</totfact>
</mgrwt>
</event>
<event>
 4    1  0.4263413E+000  0.1820659E+03  0.7546771E-02  0.1165819E+00
         21   -1    0    0  503  502  0.00000000000E+00  0.00000000000E+00  0.29378580009E+03  0.29378580009E+03  0.00000000000E+00 0.  1.
         21   -1    0    0  501  503 -0.00000000000E+00 -0.00000000000E+00 -0.29654403805E+03  0.29654403805E+03  0.00000000000E+00 0.  1.
          6    1    1    2  501    0  0.49273374161E+02  0.28126840393E+02 -0.23370135474E+03  0.29625041394E+03  0.17300000000E+03 0.  1.
         -6    1    1    2    0  502 -0.49273374161E+02 -0.28126840393E+02  0.23094311678E+03  0.29407942421E+03  0.17300000000E+03 0.  1.
<mgrwt>
<rscale>  2 0.18206588E+03</rscale>
<asrwt>0</asrwt>
<pdfrwt beam="1">  1       21 0.45197815E-01 0.18206588E+03</pdfrwt>
<pdfrwt beam="2">  1       21 0.45622160E-01 0.18206588E+03</pdfrwt>
<totfact> 0.21767782E+04</totfact>
</mgrwt>
</event>
<event>
 4    1  0.4263413E+000  0.2066828E+03  0.7546771E-02  0.1144220E+00
         21   -1    0    0  501  502  0.00000000000E+00  0.00000000000E+00  0.34195621057E+03  0.34195621057E+03  0.00000000000E+00 0. -1.
         21   -1    0    0  502  503 -0.00000000000E+00 -0.00000000000E+00 -0.13350164066E+03  0.13350164066E+03  0.00000000000E+00 0. -1.
          6    1    1    2  501    0 -0.64201799018E+01 -0.11290507169E+03  0.16449423072E+03  0.26415170994E+03  0.17300000000E+03 0. -1.
         -6    1    1    2    0  503  0.64201799018E+01  0.11290507169E+03  0.43960339193E+02  0.21130614129E+03  0.17300000000E+03 0. -1.
<mgrwt>
<rscale>  2 0.20668279E+03</rscale>
<asrwt>0</asrwt>
<pdfrwt beam="1">  1       21 0.52608647E-01 0.20668279E+03</pdfrwt>
<pdfrwt beam="2">  1       21 0.20538714E-01 0.20668279E+03</pdfrwt>
<totfact> 0.74777652E+04</totfact>
</mgrwt>
</event>
<event>
 4    1  0.4263413E+000  0.1749773E+03  0.7546771E-02  0.1172755E+00
         21   -1    0    0  503  502  0.00000000000E+00  0.00000000000E+00  0.46919385516E+02  0.46919385516E+02  0.00000000000E+00 0.  1.
         21   -1    0    0  501  503 -0.00000000000E+00 -0.00000000000E+00 -0.65398448493E+03  0.65398448493E+03  0.00000000000E+00 0.  1.
          6    1    1    2  501    0  0.19950147602E+02  0.17030428297E+02 -0.31997023689E+03  0.36468890355E+03  0.17300000000E+03 0.  1.
         -6    1    1    2    0  502 -0.19950147602E+02 -0.17030428297E+02 -0.28709486252E+03  0.33621496690E+03  0.17300000000E+03 0.  1.
<mgrwt>
<rscale>  2 0.17497727E+03</rscale>
<asrwt>0</asrwt>
<pdfrwt beam="1">  1       21 0.72183673E-02 0.17497727E+03</pdfrwt>
<pdfrwt beam="2">  1       21 0.10061299E+00 0.17497727E+03</pdfrwt>
<totfact> 0.11687748E+05</totfact>
</mgrwt>
</event>
<event>
 4    1  0.4263413E+000  0.2654399E+03  0.7546771E-02  0.1103918E+00
         21   -1    0    0  503  502  0.00000000000E+00  0.00000000000E+00  0.54010595102E+02  0.54010595102E+02  0.00000000000E+00 0.  1.
         21   -1    0    0  501  503 -0.00000000000E+00 -0.00000000000E+00 -0.13210946916E+04  0.13210946916E+04  0.00000000000E+00 0. -1.
          6    1    1    2  501    0  0.16953442711E+03 -0.10856979903E+03 -0.71053649328E+03  0.75849880126E+03  0.17300000000E+03 0. -1.
         -6    1    1    2    0  502 -0.16953442711E+03  0.10856979903E+03 -0.55654760320E+03  0.61660648542E+03  0.17300000000E+03 0. -1.
<mgrwt>
<rscale>  2 0.26543987E+03</rscale>
<asrwt>0</asrwt>
<pdfrwt beam="1">  1       21 0.83093226E-02 0.26543987E+03</pdfrwt>
<pdfrwt beam="2">  1       21 0.20324533E+00 0.26543987E+03</pdfrwt>
<totfact> 0.13657435E+04</totfact>
</mgrwt>
</event>
<event>
 4    1  0.4263413E+000  0.1915733E+03  0.7546771E-02  0.1157050E+00
         21   -1    0    0  501  502  0.00000000000E+00  0.00000000000E+00  0.53518940165E+02  0.53518940165E+02  0.00000000000E+00 0. -1.
         21   -1    0    0  502  503 -0.00000000000E+00 -0.00000000000E+00 -0.14493757454E+04  0.14493757454E+04  0.00000000000E+00 0.  1.
          6    1    1    2  501    0 -0.57461871141E+02  0.58902287295E+02 -0.15248491753E+03  0.24485096724E+03  0.17300000000E+03 0. -1.
         -6    1    1    2    0  503  0.57461871141E+02 -0.58902287295E+02 -0.12433718877E+04  0.12580437184E+04  0.17300000000E+03 0.  1.
<mgrwt>
<rscale>  2 0.19157334E+03</rscale>
<asrwt>0</asrwt>
<pdfrwt beam="1">  1       21 0.82336845E-02 0.19157334E+03</pdfrwt>
<pdfrwt beam="2">  1       21 0.22298085E+00 0.19157334E+03</pdfrwt>
<totfact> 0.11019694E+04</totfact>
</mgrwt>
</event>
<event>
 4    1  0.4263413E+000  0.2167814E+03  0.7546771E-02  0.1136306E+00
         21   -1    0    0  503  502  0.00000000000E+00  0.00000000000E+00  0.30392861453E+03  0.30392861453E+03  0.00000000000E+00 0. -1.
         21   -1    0    0  501  503 -0.00000000000E+00 -0.00000000000E+00 -0.16662456749E+03  0.16662456749E+03  0.00000000000E+00 0. -1.
          6    1    1    2  501    0  0.10993618593E+03 -0.70563583677E+02  0.55071208684E+01  0.21685136084E+03  0.17300000000E+03 0. -1.
         -6    1    1    2    0  502 -0.10993618593E+03  0.70563583677E+02  0.13179692617E+03  0.25370182117E+03  0.17300000000E+03 0. -1.
<mgrwt>
<rscale>  2 0.21678142E+03</rscale>
<asrwt>0</asrwt>
<pdfrwt beam="1">  1       21 0.46758248E-01 0.21678142E+03</pdfrwt>
<pdfrwt beam="2">  1       21 0.25634549E-01 0.21678142E+03</pdfrwt>
<totfact> 0.62540935E+04</totfact>
</mgrwt>
</event>
<event>
 4    1  0.4263413E+000  0.1743973E+03  0.7546771E-02  0.1173338E+00
         21   -1    0    0  503  502  0.00000000000E+00  0.00000000000E+00  0.13381367243E+03  0.13381367243E+03  0.00000000000E+00 0.  1.
         21   -1    0    0  501  503 -0.00000000000E+00 -0.00000000000E+00 -0.78001266034E+03  0.78001266034E+03  0.00000000000E+00 0.  1.
          6    1    1    2  501    0  0.67408112990E+01 -0.20975883504E+02 -0.70772380096E+03  0.72889464580E+03  0.17300000000E+03 0.  1.
         -6    1    1    2    0  502 -0.67408112990E+01  0.20975883504E+02  0.61524813044E+02  0.18493168697E+03  0.17300000000E+03 0.  1.
<mgrwt>
<rscale>  2 0.17439732E+03</rscale>
<asrwt>0</asrwt>
<pdfrwt beam="1">  1       21 0.20586719E-01 0.17439732E+03</pdfrwt>
<pdfrwt beam="2">  1       21 0.12000195E+00 0.17439732E+03</pdfrwt>
<totfact> 0.11700269E+04</totfact>
</mgrwt>
</event>
<event>
 4    1  0.4263413E+000  0.1858835E+03  0.7546771E-02  0.1162227E+00
         21   -1    0    0  503  502  0.00000000000E+00  0.00000000000E+00  0.17603508041E+03  0.17603508041E+03  0.00000000000E+00 0. -1.
         21   -1    0    0  501  503 -0.00000000000E+00 -0.00000000000E+00 -0.19695526528E+03  0.19695526528E+03  0.00000000000E+00 0. -1.
          6    1    1    2  501    0 -0.37803004878E+02 -0.56520759323E+02 -0.21357161045E+02  0.18710636478E+03  0.17300000000E+03 0. -1.
         -6    1    1    2    0  502  0.37803004878E+02  0.56520759323E+02  0.43697617861E+00  0.18588398091E+03  0.17300000000E+03 0. -1.
<mgrwt>
<rscale>  2 0.18588347E+03</rscale>
<asrwt>0</asrwt>
<pdfrwt beam="1">  1       21 0.27082320E-01 0.18588347E+03</pdfrwt>
<pdfrwt beam="2">  1       21 0.30300810E-01 0.18588347E+03</pdfrwt>
<totfact> 0.13609340E+05</totfact>
</mgrwt>
</event>
<event>
 4    1  0.4263413E+000  0.2501815E+03  0.7546771E-02  0.1113190E+00
         21   -1    0    0  501  502  0.00000000000E+00  0.00000000000E+00  0.13863069326E+03  0.13863069326E+03  0.00000000000E+00 0. -1.
         21   -1    0    0  502  503 -0.00000000000E+00 -0.00000000000E+00 -0.45751854677E+03  0.45751854677E+03  0.00000000000E+00 0. -1.
          6    1    1    2  501    0  0.30317826327E+02  0.17816458720E+03 -0.12523668452E+03  0.27977672862E+03  0.17300000000E+03 0. -1.
         -6    1    1    2    0  503 -0.30317826327E+02 -0.17816458720E+03 -0.19365116899E+03  0.31637251141E+03  0.17300000000E+03 0. -1.
<mgrwt>
<rscale>  2 0.25018152E+03</rscale>
<asrwt>0</asrwt>
<pdfrwt beam="1">  1       21 0.21327799E-01 0.25018152E+03</pdfrwt>
<pdfrwt beam="2">  1       21 0.70387468E-01 0.25018152E+03</pdfrwt>
<totfact> 0.36429558E+04</totfact>
</mgrwt>
</event>
<event>
 4    1  0.4263413E+000  0.1907217E+03  0.7546771E-02  0.1157812E+00
         21   -1    0    0  503  502  0.00000000000E+00  0.00000000000E+00  0.78424170425E+03  0.78424170425E+03  0.00000000000E+00 0. -1.
         21   -1    0    0  501  503 -0.00000000000E+00 -0.00000000000E+00 -0.20961419740E+03  0.20961419740E+03  0.00000000000E+00 0. -1.
          6    1    1    2  501    0 -0.67950674222E+01 -0.79997423724E+02 -0.15120269327E+03  0.24338655508E+03  0.17300000000E+03 0. -1.
         -6    1    1    2    0  502  0.67950674222E+01  0.79997423724E+02  0.72583020012E+03  0.75046934657E+03  0.17300000000E+03 0. -1.
<mgrwt>
<rscale>  2 0.19072168E+03</rscale>
<asrwt>0</asrwt>
<pdfrwt beam="1">  1       21 0.12065257E+00 0.19072168E+03</pdfrwt>
<pdfrwt beam="2">  1       21 0.32248339E-01 0.19072168E+03</pdfrwt>
<totfact> 0.48277249E+03</totfact>
</mgrwt>
</event>
<event>
 4    1  0.4263413E+000  0.2837999E+03  0.7546771E-02  0.1093631E+00
         21   -1    0    0  501  502  0.00000000000E+00  0.00000000000E+00  0.27941582351E+04  0.27941582351E+04  0.00000000000E+00 0.  1.
         21   -1    0    0  502  503 -0.00000000000E+00 -0.00000000000E+00 -0.29610573300E+02  0.29610573300E+02  0.00000000000E+00 0. -1.
          6    1    1    2  501    0 -0.40792178980E+02  0.22124501817E+03  0.16122034926E+04  0.16369918942E+04  0.17300000000E+03 0.  1.
         -6    1    1    2    0  503  0.40792178980E+02 -0.22124501817E+03  0.11523441692E+04  0.11867769142E+04  0.17300000000E+03 0. -1.
<mgrwt>
<rscale>  2 0.28379986E+03</rscale>
<asrwt>0</asrwt>
<pdfrwt beam="1">  1       21 0.42987029E+00 0.28379986E+03</pdfrwt>
<pdfrwt beam="2">  1       21 0.45554750E-02 0.28379986E+03</pdfrwt>
<totfact> 0.15845377E+03</totfact>
</mgrwt>
</event>
<event>
 4    1  0.4263413E+000  0.2480597E+03  0.7546771E-02  0.1114537E+00
         21   -1    0    0  501  502  0.00000000000E+00  0.00000000000E+00  0.24077466030E+03  0.24077466030E+03  0.00000000000E+00 0.  1.
         21   -1    0    0  502  503 -0.00000000000E+00 -0.00000000000E+00 -0.26247995024E+03  0.26247995024E+03  0.00000000000E+00 0. -1.
          6    1    1    2  501    0  0.58784340384E+02  0.16777673647E+03 -0.51693698469E+02  0.25338877330E+03  0.17300000000E+03 0. -1.
         -6    1    1    2    0  503 -0.58784340384E+02 -0.16777673647E+03  0.29988408525E+02  0.24986583724E+03  0.17300000000E+03 0. -1.
<mgrwt>
<rscale>  2 0.24805973E+03</rscale>
<asrwt>0</asrwt>
<pdfrwt beam="1">  1       21 0.37042255E-01 0.24805973E+03</pdfrwt>
<pdfrwt beam="2">  1       21 0.40381531E-01 0.24805973E+03</pdfrwt>
<totfact> 0.40468773E+04</totfact>
</mgrwt>
</event>
<event>
 4    1  0.4263413E+000  0.1974916E+03  0.7546771E-02  0.1151873E+00
         21   -1    0    0  503  502  0.00000000000E+00  0.00000000000E+00  0.98956553544E+03  0.98956553544E+03  0.00000000000E+00 0. -1.
         21   -1    0    0  501  503 -0.00000000000E+00 -0.00000000000E+00 -0.43560615177E+02  0.43560615177E+02  0.00000000000E+00 0. -1.
          6    1    1    2  501    0  0.45586457663E+02 -0.83641030598E+02  0.31363044970E+03  0.37063055203E+03  0.17300000000E+03 0. -1.
         -6    1    1    2    0  502 -0.45586457663E+02  0.83641030598E+02  0.63237447056E+03  0.66249559858E+03  0.17300000000E+03 0. -1.
<mgrwt>
<rscale>  2 0.19749164E+03</rscale>
<asrwt>0</asrwt>
<pdfrwt beam="1">  1       21 0.15224083E+00 0.19749164E+03</pdfrwt>
<pdfrwt beam="2">  1       21 0.67016339E-02 0.19749164E+03</pdfrwt>
<totfact> 0.46741071E+04</totfact>
</mgrwt>
</event>
<event>
 4    1  0.4263413E+000  0.4717554E+03  0.7546771E-02  0.1021426E+00
         21   -1    0    0  501  502  0.00000000000E+00  0.00000000000E+00  0.47623609300E+03  0.47623609300E+03  0.00000000000E+00 0. -1.
         21   -1    0    0  502  503 -0.00000000000E+00 -0.00000000000E+00 -0.47021275784E+03  0.47021275784E+03  0.00000000000E+00 0.  1.
          6    1    1    2  501    0 -0.36656667607E+03  0.24135661242E+03  0.40149251842E+02  0.47346077429E+03  0.17300000000E+03 0. -1.
         -6    1    1    2    0  503  0.36656667607E+03 -0.24135661242E+03 -0.34125916678E+02  0.47298807655E+03  0.17300000000E+03 0.  1.
<mgrwt>
<rscale>  2 0.47175538E+03</rscale>
<asrwt>0</asrwt>
<pdfrwt beam="1">  1       21 0.73267092E-01 0.47175538E+03</pdfrwt>
<pdfrwt beam="2">  1       21 0.72340424E-01 0.47175538E+03</pdfrwt>
<totfact> 0.24844436E+03</totfact>
</mgrwt>
</event>
<event>
 4    1  0.4263413E+000  0.1782022E+03  0.7546771E-02  0.1169554E+00
         21   -1    0    0  503  502  0.00000000000E+00  0.00000000000E+00  0.88579950628E+03  0.88579950628E+03  0.00000000000E+00 0. -1.
         21   -1    0    0  501  503 -0.00000000000E+00 -0.00000000000E+00 -0.64852814367E+02  0.64852814367E+02  0.00000000000E+00 0. -1.
          6    1    1    2  501    0 -0.26734434897E+02  0.33350857834E+02  0.92605534922E+02  0.20082777404E+03  0.17300000000E+03 0. -1.
         -6    1    1    2    0  502  0.26734434897E+02 -0.33350857834E+02  0.72834115699E+03  0.74982454660E+03  0.17300000000E+03 0. -1.
<mgrwt>
<rscale>  2 0.17820216E+03</rscale>
<asrwt>0</asrwt>
<pdfrwt beam="1">  1       21 0.13627684E+00 0.17820216E+03</pdfrwt>
<pdfrwt beam="2">  1       21 0.99773567E-02 0.17820216E+03</pdfrwt>
<totfact> 0.31519170E+04</totfact>
</mgrwt>
</event>
<event>
 4    1  0.4263413E+000  0.1822168E+03  0.7546771E-02  0.1165675E+00
         21   -1    0    0  501  502  0.00000000000E+00  0.00000000000E+00  0.22044797605E+03  0.22044797605E+03  0.00000000000E+00 0. -1.
         21   -1    0    0  502  503 -0.00000000000E+00 -0.00000000000E+00 -0.26646127121E+03  0.26646127121E+03  0.00000000000E+00 0. -1.
          6    1    1    2  501    0 -0.73190745644E+01  0.56748489197E+02  0.13751751418E+03  0.22828496794E+03  0.17300000000E+03 0. -1.
         -6    1    1    2    0  503  0.73190745644E+01 -0.56748489197E+02 -0.18353080934E+03  0.25862427932E+03  0.17300000000E+03 0. -1.
<mgrwt>
<rscale>  2 0.18221679E+03</rscale>
<asrwt>0</asrwt>
<pdfrwt beam="1">  1       21 0.33915073E-01 0.18221679E+03</pdfrwt>
<pdfrwt beam="2">  1       21 0.40994042E-01 0.18221679E+03</pdfrwt>
<totfact> 0.48244630E+04</totfact>
</mgrwt>
</event>
<event>
 4    1  0.4263413E+000  0.2208875E+03  0.7546771E-02  0.1133223E+00
         21   -1    0    0  503  502  0.00000000000E+00  0.00000000000E+00  0.40223221767E+03  0.40223221767E+03  0.00000000000E+00 0. -1.
         21   -1    0    0  501  503 -0.00000000000E+00 -0.00000000000E+00 -0.18970819467E+03  0.18970819467E+03  0.00000000000E+00 0.  1.
          6    1    1    2  501    0  0.12651556569E+03 -0.53442632956E+02 -0.71465552794E+02  0.23216078182E+03  0.17300000000E+03 0.  1.
         -6    1    1    2    0  502 -0.12651556569E+03  0.53442632956E+02  0.28398957579E+03  0.35977963052E+03  0.17300000000E+03 0. -1.
<mgrwt>
<rscale>  2 0.22088754E+03</rscale>
<asrwt>0</asrwt>
<pdfrwt beam="1">  1       21 0.61881879E-01 0.22088754E+03</pdfrwt>
<pdfrwt beam="2">  1       21 0.29185876E-01 0.22088754E+03</pdfrwt>
<totfact> 0.26838177E+04</totfact>
</mgrwt>
</event>
<event>
 4    1  0.4263413E+000  0.1761980E+03  0.7546771E-02  0.1171534E+00
         21   -1    0    0  501  502  0.00000000000E+00  0.00000000000E+00  0.40334409135E+03  0.40334409135E+03  0.00000000000E+00 0.  1.
         21   -1    0    0  502  503 -0.00000000000E+00 -0.00000000000E+00 -0.38864326643E+03  0.38864326643E+03  0.00000000000E+00 0.  1.
          6    1    1    2  501    0  0.30423940490E+02  0.13825068281E+02  0.36196928489E+03  0.40257609451E+03  0.17300000000E+03 0.  1.
         -6    1    1    2    0  503 -0.30423940490E+02 -0.13825068281E+02 -0.34726845997E+03  0.38941126327E+03  0.17300000000E+03 0.  1.
<mgrwt>
<rscale>  2 0.17619804E+03</rscale>
<asrwt>0</asrwt>
<pdfrwt beam="1">  1       21 0.62052937E-01 0.17619804E+03</pdfrwt>
<pdfrwt beam="2">  1       21 0.59791272E-01 0.17619804E+03</pdfrwt>
<totfact> 0.63716346E+03</totfact>
</mgrwt>
</event>
<event>
 4    1  0.4263413E+000  0.1921486E+03  0.7546771E-02  0.1156538E+00
         21   -1    0    0  503  502  0.00000000000E+00  0.00000000000E+00  0.33122918389E+03  0.33122918389E+03  0.00000000000E+00 0. -1.
         21   -1    0    0  501  503 -0.00000000000E+00 -0.00000000000E+00 -0.28076435335E+03  0.28076435335E+03  0.00000000000E+00 0. -1.
          6    1    1    2  501    0  0.65380985445E+02 -0.52128806241E+02 -0.21238107135E+03  0.28640322129E+03  0.17300000000E+03 0. -1.
         -6    1    1    2    0  502 -0.65380985445E+02  0.52128806241E+02  0.26284590189E+03  0.32559031595E+03  0.17300000000E+03 0. -1.
<mgrwt>
<rscale>  2 0.19214860E+03</rscale>
<asrwt>0</asrwt>
<pdfrwt beam="1">  1       21 0.50958336E-01 0.19214860E+03</pdfrwt>
<pdfrwt beam="2">  1       21 0.43194516E-01 0.19214860E+03</pdfrwt>
<totfact> 0.18879205E+04</totfact>
</mgrwt>
</event>
<event>
 4    1  0.4263413E+000  0.1747523E+03  0.7546771E-02  0.1172981E+00
         21   -1    0    0  501  502  0.00000000000E+00  0.00000000000E+00  0.10040053638E+04  0.10040053638E+04  0.00000000000E+00 0.  1.
         21   -1    0    0  502  503 -0.00000000000E+00 -0.00000000000E+00 -0.30443159784E+02  0.30443159784E+02  0.00000000000E+00 0.  1.
          6    1    1    2  501    0 -0.11108553967E+02  0.22044727002E+02  0.50207545076E+03  0.53161840470E+03  0.17300000000E+03 0.  1.
         -6    1    1    2    0  503  0.11108553967E+02 -0.22044727002E+02  0.47148675325E+03  0.50283011888E+03  0.17300000000E+03 0.  1.
<mgrwt>
<rscale>  2 0.17475231E+03</rscale>
<asrwt>0</asrwt>
<pdfrwt beam="1">  1       21 0.15446234E+00 0.17475231E+03</pdfrwt>
<pdfrwt beam="2">  1       21 0.46835638E-02 0.17475231E+03</pdfrwt>
<totfact> 0.83878000E+04</totfact>
</mgrwt>
</event>
<event>
 4    1  0.4263413E+000  0.1763774E+03  0.7546771E-02  0.1171356E+00
         21   -1    0    0  503  502  0.00000000000E+00  0.00000000000E+00  0.18076008070E+03  0.18076008070E+03  0.00000000000E+00 0.  1.
         21   -1    0    0  501  503 -0.00000000000E+00 -0.00000000000E+00 -0.28415558765E+03  0.28415558765E+03  0.00000000000E+00 0.  1.
          6    1    1    2  501    0  0.25748152373E+02 -0.22738357040E+02 -0.19767353366E+03  0.26492230209E+03  0.17300000000E+03 0.  1.
         -6    1    1    2    0  502 -0.25748152373E+02  0.22738357040E+02  0.94278026714E+02  0.19999336627E+03  0.17300000000E+03 0.  1.
<mgrwt>
<rscale>  2 0.17637744E+03</rscale>
<asrwt>0</asrwt>
<pdfrwt beam="1">  1       21 0.27809243E-01 0.17637744E+03</pdfrwt>
<pdfrwt beam="2">  1       21 0.43716244E-01 0.17637744E+03</pdfrwt>
<totfact> 0.62525899E+04</totfact>
</mgrwt>
</event>
<event>
 4    1  0.4263413E+000  0.2073657E+03  0.7546771E-02  0.1143669E+00
         21   -1    0    0  503  502  0.00000000000E+00  0.00000000000E+00  0.38847173367E+02  0.38847173367E+02  0.00000000000E+00 0.  1.
         21   -1    0    0  501  503 -0.00000000000E+00 -0.00000000000E+00 -0.11383356246E+04  0.11383356246E+04  0.00000000000E+00 0.  1.
          6    1    1    2  501    0  0.37447360310E+01 -0.11426940561E+03 -0.45195614051E+03  0.49725735093E+03  0.17300000000E+03 0.  1.
         -6    1    1    2    0  502 -0.37447360310E+01  0.11426940561E+03 -0.64753231073E+03  0.67992544705E+03  0.17300000000E+03 0.  1.
<mgrwt>
<rscale>  2 0.20736567E+03</rscale>
<asrwt>0</asrwt>
<pdfrwt beam="1">  1       21 0.59764887E-02 0.20736567E+03</pdfrwt>
<pdfrwt beam="2">  1       21 0.17512854E+00 0.20736567E+03</pdfrwt>
<totfact> 0.38649555E+04</totfact>
</mgrwt>
</event>
<event>
 4    1  0.4263413E+000  0.1994573E+03  0.7546771E-02  0.1150198E+00
         21   -1    0    0  501  502  0.00000000000E+00  0.00000000000E+00  0.16871727674E+03  0.16871727674E+03  0.00000000000E+00 0. -1.
         21   -1    0    0  502  503 -0.00000000000E+00 -0.00000000000E+00 -0.25884372186E+03  0.25884372186E+03  0.00000000000E+00 0.  1.
          6    1    1    2  501    0  0.91132460997E+02  0.39358611271E+02  0.18725336281E+02  0.20033438034E+03  0.17300000000E+03 0.  1.
         -6    1    1    2    0  503 -0.91132460997E+02 -0.39358611271E+02 -0.10885178141E+03  0.22722661826E+03  0.17300000000E+03 0. -1.
<mgrwt>
<rscale>  2 0.19945733E+03</rscale>
<asrwt>0</asrwt>
<pdfrwt beam="1">  1       21 0.25956504E-01 0.19945733E+03</pdfrwt>
<pdfrwt beam="2">  1       21 0.39822111E-01 0.19945733E+03</pdfrwt>
<totfact> 0.85436571E+04</totfact>
</mgrwt>
</event>
<event>
 4    1  0.4263413E+000  0.2248846E+03  0.7546771E-02  0.1130293E+00
         21   -1    0    0  503  502  0.00000000000E+00  0.00000000000E+00  0.29471548870E+03  0.29471548870E+03  0.00000000000E+00 0. -1.
         21   -1    0    0  501  503 -0.00000000000E+00 -0.00000000000E+00 -0.21015664069E+03  0.21015664069E+03  0.00000000000E+00 0. -1.
          6    1    1    2  501    0 -0.14332894730E+03 -0.10044085778E+02 -0.65846910960E+02  0.23432645279E+03  0.17300000000E+03 0. -1.
         -6    1    1    2    0  502  0.14332894730E+03  0.10044085778E+02  0.15040575898E+03  0.27054567660E+03  0.17300000000E+03 0. -1.
<mgrwt>
<rscale>  2 0.22488457E+03</rscale>
<asrwt>0</asrwt>
<pdfrwt beam="1">  1       21 0.45340845E-01 0.22488457E+03</pdfrwt>
<pdfrwt beam="2">  1       21 0.32331791E-01 0.22488457E+03</pdfrwt>
<totfact> 0.42272186E+04</totfact>
</mgrwt>
</event>
<event>
 4    1  0.4263413E+000  0.1941062E+03  0.7546771E-02  0.1154809E+00
         21   -1    0    0  503  502  0.00000000000E+00  0.00000000000E+00  0.13059056738E+04  0.13059056738E+04  0.00000000000E+00 0.  1.
         21   -1    0    0  501  503 -0.00000000000E+00 -0.00000000000E+00 -0.31476147826E+02  0.31476147826E+02  0.00000000000E+00 0.  1.
          6    1    1    2  501    0  0.35500050749E+02  0.80547960376E+02  0.44411705389E+03  0.48468256115E+03  0.17300000000E+03 0.  1.
         -6    1    1    2    0  502 -0.35500050749E+02 -0.80547960376E+02  0.83031247212E+03  0.85269926051E+03  0.17300000000E+03 0.  1.
<mgrwt>
<rscale>  2 0.19410623E+03</rscale>
<asrwt>0</asrwt>
<pdfrwt beam="1">  1       21 0.20090852E+00 0.19410623E+03</pdfrwt>
<pdfrwt beam="2">  1       21 0.48424853E-02 0.19410623E+03</pdfrwt>
<totfact> 0.37584495E+04</totfact>
</mgrwt>
</event>
<event>
 4    1  0.4263413E+000  0.2068999E+03  0.7546771E-02  0.1144045E+00
         21   -1    0    0  501  502  0.00000000000E+00  0.00000000000E+00  0.28893077827E+03  0.28893077827E+03  0.00000000000E+00 0.  1.
         21   -1    0    0  502  503 -0.00000000000E+00 -0.00000000000E+00 -0.15234208774E+03  0.15234208774E+03  0.00000000000E+00 0.  1.
          6    1    1    2  501    0 -0.28288322322E+02 -0.10990147656E+03  0.10485713949E+03  0.23195383901E+03  0.17300000000E+03 0.  1.
         -6    1    1    2    0  503  0.28288322322E+02  0.10990147656E+03  0.31731551039E+02  0.20931902699E+03  0.17300000000E+03 0.  1.
<mgrwt>
<rscale>  2 0.20689989E+03</rscale>
<asrwt>0</asrwt>
<pdfrwt beam="1">  1       21 0.44450889E-01 0.20689989E+03</pdfrwt>
<pdfrwt beam="2">  1       21 0.23437244E-01 0.20689989E+03</pdfrwt>
<totfact> 0.82723220E+04</totfact>
</mgrwt>
</event>
<event>
 4    1  0.4263413E+000  0.1911282E+03  0.7546771E-02  0.1157448E+00
         21   -1    0    0  503  502  0.00000000000E+00  0.00000000000E+00  0.40909152813E+03  0.40909152813E+03  0.00000000000E+00 0. -1.
         21   -1    0    0  501  503 -0.00000000000E+00 -0.00000000000E+00 -0.93595106781E+02  0.93595106781E+02  0.00000000000E+00 0. -1.
          6    1    1    2  501    0 -0.76180652348E+02 -0.28240098849E+02  0.10387662248E+03  0.21753240603E+03  0.17300000000E+03 0. -1.
         -6    1    1    2    0  502  0.76180652348E+02  0.28240098849E+02  0.21161979888E+03  0.28515422889E+03  0.17300000000E+03 0. -1.
<mgrwt>
<rscale>  2 0.19112822E+03</rscale>
<asrwt>0</asrwt>
<pdfrwt beam="1">  1       21 0.62937157E-01 0.19112822E+03</pdfrwt>
<pdfrwt beam="2">  1       21 0.14399247E-01 0.19112822E+03</pdfrwt>
<totfact> 0.98831857E+04</totfact>
</mgrwt>
</event>
<event>
 4    1  0.4263413E+000  0.2139395E+03  0.7546771E-02  0.1138484E+00
         21   -1    0    0  503  502  0.00000000000E+00  0.00000000000E+00  0.27332717362E+03  0.27332717362E+03  0.00000000000E+00 0. -1.
         21   -1    0    0  501  503 -0.00000000000E+00 -0.00000000000E+00 -0.18864791126E+03  0.18864791126E+03  0.00000000000E+00 0. -1.
          6    1    1    2  501    0  0.69999713671E+02  0.10459996582E+03 -0.35080465632E+02  0.21679656785E+03  0.17300000000E+03 0. -1.
         -6    1    1    2    0  502 -0.69999713671E+02 -0.10459996582E+03  0.11975972799E+03  0.24517851703E+03  0.17300000000E+03 0. -1.
<mgrwt>
<rscale>  2 0.21393951E+03</rscale>
<asrwt>0</asrwt>
<pdfrwt beam="1">  1       21 0.42050335E-01 0.21393951E+03</pdfrwt>
<pdfrwt beam="2">  1       21 0.29022755E-01 0.21393951E+03</pdfrwt>
<totfact> 0.61264625E+04</totfact>
</mgrwt>
</event>
<event>
 4    1  0.4263413E+000  0.1893230E+03  0.7546771E-02  0.1159073E+00
         21   -1    0    0  501  502  0.00000000000E+00  0.00000000000E+00  0.29898638645E+04  0.29898638645E+04  0.00000000000E+00 0. -1.
         21   -1    0    0  502  503 -0.00000000000E+00 -0.00000000000E+00 -0.31508454792E+02  0.31508454792E+02  0.00000000000E+00 0. -1.
          6    1    1    2  501    0 -0.45635932474E+02  0.61899744147E+02  0.26682354675E+04  0.26749436866E+04  0.17300000000E+03 0. -1.
         -6    1    1    2    0  503  0.45635932474E+02 -0.61899744147E+02  0.29011994223E+03  0.34642863268E+03  0.17300000000E+03 0. -1.
<mgrwt>
<rscale>  2 0.18932305E+03</rscale>
<asrwt>0</asrwt>
<pdfrwt beam="1">  1       21 0.45997883E+00 0.18932305E+03</pdfrwt>
<pdfrwt beam="2">  1       21 0.48474569E-02 0.18932305E+03</pdfrwt>
<totfact> 0.10173827E+03</totfact>
</mgrwt>
</event>
<event>
 4    1  0.4263413E+000  0.2090764E+03  0.7546771E-02  0.1142299E+00
         21   -1    0    0  501  502  0.00000000000E+00  0.00000000000E+00  0.16557845993E+03  0.16557845993E+03  0.00000000000E+00 0.  1.
         21   -1    0    0  502  503 -0.00000000000E+00 -0.00000000000E+00 -0.56165804211E+03  0.56165804211E+03  0.00000000000E+00 0.  1.
          6    1    1    2  501    0 -0.28095221023E+02  0.11399387613E+03  0.66668455763E+02  0.21944846373E+03  0.17300000000E+03 0.  1.
         -6    1    1    2    0  503  0.28095221023E+02 -0.11399387613E+03 -0.46274803794E+03  0.50778803831E+03  0.17300000000E+03 0.  1.
<mgrwt>
<rscale>  2 0.20907641E+03</rscale>
<asrwt>0</asrwt>
<pdfrwt beam="1">  1       21 0.25473609E-01 0.20907641E+03</pdfrwt>
<pdfrwt beam="2">  1       21 0.86408931E-01 0.20907641E+03</pdfrwt>
<totfact> 0.16689816E+04</totfact>
</mgrwt>
</event>
<event>
 4    1  0.4263413E+000  0.2353291E+03  0.7546771E-02  0.1122944E+00
         21   -1    0    0  501  502  0.00000000000E+00  0.00000000000E+00  0.12495000885E+04  0.12495000885E+04  0.00000000000E+00 0.  1.
         21   -1    0    0  502  503 -0.00000000000E+00 -0.00000000000E+00 -0.46571238310E+02  0.46571238310E+02  0.00000000000E+00 0.  1.
          6    1    1    2  501    0  0.14334126965E+03 -0.70028936537E+02  0.74389456275E+03  0.78023002507E+03  0.17300000000E+03 0.  1.
         -6    1    1    2    0  503 -0.14334126965E+03  0.70028936537E+02  0.45903428746E+03  0.51584130176E+03  0.17300000000E+03 0.  1.
<mgrwt>
<rscale>  2 0.23532907E+03</rscale>
<asrwt>0</asrwt>
<pdfrwt beam="1">  1       21 0.19223076E+00 0.23532907E+03</pdfrwt>
<pdfrwt beam="2">  1       21 0.71648069E-02 0.23532907E+03</pdfrwt>
<totfact> 0.21274556E+04</totfact>
</mgrwt>
</event>
<event>
 4    1  0.4263413E+000  0.1978550E+03  0.7546771E-02  0.1151561E+00
         21   -1    0    0  501  502  0.00000000000E+00  0.00000000000E+00  0.98093942528E+02  0.98093942528E+02  0.00000000000E+00 0. -1.
         21   -1    0    0  502  503 -0.00000000000E+00 -0.00000000000E+00 -0.84636081874E+03  0.84636081874E+03  0.00000000000E+00 0. -1.
          6    1    1    2  501    0  0.41764485407E+01 -0.95917379933E+02 -0.30838650517E+02  0.20024387347E+03  0.17300000000E+03 0. -1.
         -6    1    1    2    0  503 -0.41764485407E+01  0.95917379933E+02 -0.71742822570E+03  0.74421088780E+03  0.17300000000E+03 0. -1.
<mgrwt>
<rscale>  2 0.19785496E+03</rscale>
<asrwt>0</asrwt>
<pdfrwt beam="1">  1       21 0.15091375E-01 0.19785496E+03</pdfrwt>
<pdfrwt beam="2">  1       21 0.13020936E+00 0.19785496E+03</pdfrwt>
<totfact> 0.16643745E+04</totfact>
</mgrwt>
</event>
<event>
 4    1  0.4263413E+000  0.2936612E+03  0.7546771E-02  0.1088453E+00
         21   -1    0    0  503  502  0.00000000000E+00  0.00000000000E+00  0.31872746284E+03  0.31872746284E+03  0.00000000000E+00 0. -1.
         21   -1    0    0  501  503 -0.00000000000E+00 -0.00000000000E+00 -0.40836504077E+03  0.40836504077E+03  0.00000000000E+00 0.  1.
          6    1    1    2  501    0  0.73428249286E+02  0.22564616288E+03 -0.25600136140E+03  0.38958130814E+03  0.17300000000E+03 0.  1.
         -6    1    1    2    0  502 -0.73428249286E+02 -0.22564616288E+03  0.16636378348E+03  0.33751119547E+03  0.17300000000E+03 0. -1.
<mgrwt>
<rscale>  2 0.29366120E+03</rscale>
<asrwt>0</asrwt>
<pdfrwt beam="1">  1       21 0.49034994E-01 0.29366120E+03</pdfrwt>
<pdfrwt beam="2">  1       21 0.62825391E-01 0.29366120E+03</pdfrwt>
<totfact> 0.87792841E+03</totfact>
</mgrwt>
</event>
<event>
 4    1  0.4263413E+000  0.2236085E+03  0.7546771E-02  0.1131221E+00
         21   -1    0    0  503  502  0.00000000000E+00  0.00000000000E+00  0.13270818956E+03  0.13270818956E+03  0.00000000000E+00 0. -1.
         21   -1    0    0  501  503 -0.00000000000E+00 -0.00000000000E+00 -0.61827285620E+03  0.61827285620E+03  0.00000000000E+00 0. -1.
          6    1    1    2  501    0 -0.14071507829E+03  0.16462626199E+02 -0.47745801227E+03  0.52722566781E+03  0.17300000000E+03 0. -1.
         -6    1    1    2    0  502  0.14071507829E+03 -0.16462626199E+02 -0.81066543782E+01  0.22375537796E+03  0.17300000000E+03 0. -1.
<mgrwt>
<rscale>  2 0.22360848E+03</rscale>
<asrwt>0</asrwt>
<pdfrwt beam="1">  1       21 0.20416645E-01 0.22360848E+03</pdfrwt>
<pdfrwt beam="2">  1       21 0.95118901E-01 0.22360848E+03</pdfrwt>
<totfact> 0.20140546E+04</totfact>
</mgrwt>
</event>
<event>
 4    1  0.4263413E+000  0.1791761E+03  0.7546771E-02  0.1168603E+00
         21   -1    0    0  501  502  0.00000000000E+00  0.00000000000E+00  0.13053728387E+03  0.13053728387E+03  0.00000000000E+00 0. -1.
         21   -1    0    0  502  503 -0.00000000000E+00 -0.00000000000E+00 -0.34771560214E+03  0.34771560214E+03  0.00000000000E+00 0. -1.
          6    1    1    2  501    0  0.38105476006E+02 -0.26889558439E+02  0.20783251014E+02  0.18037743533E+03  0.17300000000E+03 0. -1.
         -6    1    1    2    0  503 -0.38105476006E+02  0.26889558439E+02 -0.23796156929E+03  0.29787545067E+03  0.17300000000E+03 0. -1.
<mgrwt>
<rscale>  2 0.17917610E+03</rscale>
<asrwt>0</asrwt>
<pdfrwt beam="1">  1       21 0.20082659E-01 0.17917610E+03</pdfrwt>
<pdfrwt beam="2">  1       21 0.53494707E-01 0.17917610E+03</pdfrwt>
<totfact> 0.76184811E+04</totfact>
</mgrwt>
</event>
<event>
 4    1  0.4263413E+000  0.1746044E+03  0.7546771E-02  0.1173129E+00
         21   -1    0    0  501  502  0.00000000000E+00  0.00000000000E+00  0.23645031584E+03  0.23645031584E+03  0.00000000000E+00 0. -1.
         21   -1    0    0  502  503 -0.00000000000E+00 -0.00000000000E+00 -0.28202768791E+03  0.28202768791E+03  0.00000000000E+00 0. -1.
          6    1    1    2  501    0 -0.15416859303E+02  0.17889022830E+02  0.16821064226E+03  0.24244899847E+03  0.17300000000E+03 0. -1.
         -6    1    1    2    0  503  0.15416859303E+02 -0.17889022830E+02 -0.21378801433E+03  0.27602900529E+03  0.17300000000E+03 0. -1.
<mgrwt>
<rscale>  2 0.17460440E+03</rscale>
<asrwt>0</asrwt>
<pdfrwt beam="1">  1       21 0.36376972E-01 0.17460440E+03</pdfrwt>
<pdfrwt beam="2">  1       21 0.43388875E-01 0.17460440E+03</pdfrwt>
<totfact> 0.37559919E+04</totfact>
</mgrwt>
</event>
<event>
 4    1  0.4263413E+000  0.1776386E+03  0.7546771E-02  0.1170108E+00
         21   -1    0    0  501  502  0.00000000000E+00  0.00000000000E+00  0.65118810480E+03  0.65118810480E+03  0.00000000000E+00 0.  1.
         21   -1    0    0  502  503 -0.00000000000E+00 -0.00000000000E+00 -0.39719790531E+03  0.39719790531E+03  0.00000000000E+00 0.  1.
          6    1    1    2  501    0 -0.35506894258E+02 -0.19124370123E+02  0.61817249359E+03  0.64318948445E+03  0.17300000000E+03 0.  1.
         -6    1    1    2    0  503  0.35506894258E+02  0.19124370123E+02 -0.36418229410E+03  0.40519652566E+03  0.17300000000E+03 0.  1.
<mgrwt>
<rscale>  2 0.17763862E+03</rscale>
<asrwt>0</asrwt>
<pdfrwt beam="1">  1       21 0.10018279E+00 0.17763862E+03</pdfrwt>
<pdfrwt beam="2">  1       21 0.61107370E-01 0.17763862E+03</pdfrwt>
<totfact> 0.20652029E+03</totfact>
</mgrwt>
</event>
<event>
 4    1  0.4263413E+000  0.2119801E+03  0.7546771E-02  0.1140007E+00
         21   -1    0    0  503  502  0.00000000000E+00  0.00000000000E+00  0.14258541494E+03  0.14258541494E+03  0.00000000000E+00 0.  1.
         21   -1    0    0  501  503 -0.00000000000E+00 -0.00000000000E+00 -0.19308938347E+04  0.19308938347E+04  0.00000000000E+00 0.  1.
          6    1    1    2  501    0 -0.61323496230E+02 -0.10604714266E+03 -0.18425223737E+04  0.18546763236E+04  0.17300000000E+03 0.  1.
         -6    1    1    2    0  502  0.61323496230E+02  0.10604714266E+03  0.54213953928E+02  0.21880292607E+03  0.17300000000E+03 0.  1.
<mgrwt>
<rscale>  2 0.21198011E+03</rscale>
<asrwt>0</asrwt>
<pdfrwt beam="1">  1       21 0.21936217E-01 0.21198011E+03</pdfrwt>
<pdfrwt beam="2">  1       21 0.29706060E+00 0.21198011E+03</pdfrwt>
<totfact> 0.67129622E+02</totfact>
</mgrwt>
</event>
<event>
 4    1  0.4263413E+000  0.2091230E+03  0.7546771E-02  0.1142262E+00
         21   -1    0    0  503  502  0.00000000000E+00  0.00000000000E+00  0.16124900519E+03  0.16124900519E+03  0.00000000000E+00 0. -1.
         21   -1    0    0  501  503 -0.00000000000E+00 -0.00000000000E+00 -0.32633331348E+03  0.32633331348E+03  0.00000000000E+00 0. -1.
          6    1    1    2  501    0 -0.11296227879E+03  0.32294663707E+02 -0.18273875170E+03  0.27771545349E+03  0.17300000000E+03 0. -1.
         -6    1    1    2    0  502  0.11296227879E+03 -0.32294663707E+02  0.17654443409E+02  0.20986686519E+03  0.17300000000E+03 0. -1.
<mgrwt>
<rscale>  2 0.20912298E+03</rscale>
<asrwt>0</asrwt>
<pdfrwt beam="1">  1       21 0.24807539E-01 0.20912298E+03</pdfrwt>
<pdfrwt beam="2">  1       21 0.50205125E-01 0.20912298E+03</pdfrwt>
<totfact> 0.57629226E+04</totfact>
</mgrwt>
</event>
<event>
 4    1  0.4263413E+000  0.2040716E+03  0.7546771E-02  0.1146349E+00
         21   -1    0    0  503  502  0.00000000000E+00  0.00000000000E+00  0.34344421801E+03  0.34344421801E+03  0.00000000000E+00 0. -1.
         21   -1    0    0  501  503 -0.00000000000E+00 -0.00000000000E+00 -0.96580415136E+03  0.96580415136E+03  0.00000000000E+00 0. -1.
          6    1    1    2  501    0  0.97757767514E+02 -0.46471750198E+02 -0.92333203499E+03  0.94561474793E+03  0.17300000000E+03 0. -1.
         -6    1    1    2    0  502 -0.97757767514E+02  0.46471750198E+02  0.30097210164E+03  0.36363362144E+03  0.17300000000E+03 0. -1.
<mgrwt>
<rscale>  2 0.20407157E+03</rscale>
<asrwt>0</asrwt>
<pdfrwt beam="1">  1       21 0.52837573E-01 0.20407157E+03</pdfrwt>
<pdfrwt beam="2">  1       21 0.14858525E+00 0.20407157E+03</pdfrwt>
<totfact> 0.10280726E+03</totfact>
</mgrwt>
</event>
<event>
 4    1  0.4263413E+000  0.2033659E+03  0.7546771E-02  0.1146930E+00
         21   -1    0    0  501  502  0.00000000000E+00  0.00000000000E+00  0.19288195020E+03  0.19288195020E+03  0.00000000000E+00 0.  1.
         21   -1    0    0  502  503 -0.00000000000E+00 -0.00000000000E+00 -0.21446357503E+03  0.21446357503E+03  0.00000000000E+00 0. -1.
          6    1    1    2  501    0  0.87334998233E+02  0.61654556326E+02 -0.13704606829E+02  0.20382713872E+03  0.17300000000E+03 0.  1.
         -6    1    1    2    0  503 -0.87334998233E+02 -0.61654556326E+02 -0.78770180059E+01  0.20351838650E+03  0.17300000000E+03 0.  1.
<mgrwt>
<rscale>  2 0.20336589E+03</rscale>
<asrwt>0</asrwt>
<pdfrwt beam="1">  1       21 0.29674146E-01 0.20336589E+03</pdfrwt>
<pdfrwt beam="2">  1       21 0.32994396E-01 0.20336589E+03</pdfrwt>
<totfact> 0.95845341E+04</totfact>
</mgrwt>
</event>
<event>
 4    1  0.4263413E+000  0.1930302E+03  0.7546771E-02  0.1155756E+00
         21   -1    0    0  501  502  0.00000000000E+00  0.00000000000E+00  0.73386647988E+03  0.73386647988E+03  0.00000000000E+00 0. -1.
         21   -1    0    0  502  503 -0.00000000000E+00 -0.00000000000E+00 -0.51088688493E+02  0.51088688493E+02  0.00000000000E+00 0. -1.
          6    1    1    2  501    0  0.11276923996E+02  0.84879343571E+02  0.37223618370E+03  0.41930949004E+03  0.17300000000E+03 0.  1.
         -6    1    1    2    0  503 -0.11276923996E+02 -0.84879343571E+02  0.31054160768E+03  0.36564567833E+03  0.17300000000E+03 0.  1.
<mgrwt>
<rscale>  2 0.19303024E+03</rscale>
<asrwt>0</asrwt>
<pdfrwt beam="1">  1       21 0.11290253E+00 0.19303024E+03</pdfrwt>
<pdfrwt beam="2">  1       21 0.78597987E-02 0.19303024E+03</pdfrwt>
<totfact> 0.75866382E+04</totfact>
</mgrwt>
</event>
<event>
 4    1  0.4263413E+000  0.2078883E+03  0.7546771E-02  0.1143249E+00
         21   -1    0    0  503  502  0.00000000000E+00  0.00000000000E+00  0.70536305554E+02  0.70536305554E+02  0.00000000000E+00 0.  1.
         21   -1    0    0  501  503 -0.00000000000E+00 -0.00000000000E+00 -0.67804594617E+03  0.67804594617E+03  0.00000000000E+00 0.  1.
          6    1    1    2  501    0 -0.12356700408E+02 -0.11461182083E+03 -0.41995078128E+03  0.46858960318E+03  0.17300000000E+03 0.  1.
         -6    1    1    2    0  502  0.12356700408E+02  0.11461182083E+03 -0.18755885934E+03  0.27999264854E+03  0.17300000000E+03 0.  1.
<mgrwt>
<rscale>  2 0.20788833E+03</rscale>
<asrwt>0</asrwt>
<pdfrwt beam="1">  1       21 0.10851739E-01 0.20788833E+03</pdfrwt>
<pdfrwt beam="2">  1       21 0.10431476E+00 0.20788833E+03</pdfrwt>
<totfact> 0.51702614E+04</totfact>
</mgrwt>
</event>
<event>
 4    1  0.4263413E+000  0.1848208E+03  0.7546771E-02  0.1163217E+00
         21   -1    0    0  503  502  0.00000000000E+00  0.00000000000E+00  0.76905145353E+02  0.76905145353E+02  0.00000000000E+00 0. -1.
         21   -1    0    0  501  503 -0.00000000000E+00 -0.00000000000E+00 -0.48039824382E+03  0.48039824382E+03  0.00000000000E+00 0. -1.
          6    1    1    2  501    0  0.64690867247E+02 -0.66935415762E+01 -0.27827163822E+03  0.33405660664E+03  0.17300000000E+03 0.  1.
         -6    1    1    2    0  502 -0.64690867247E+02  0.66935415762E+01 -0.12522146025E+03  0.22324678253E+03  0.17300000000E+03 0.  1.
<mgrwt>
<rscale>  2 0.18482076E+03</rscale>
<asrwt>0</asrwt>
<pdfrwt beam="1">  1       21 0.11831561E-01 0.18482076E+03</pdfrwt>
<pdfrwt beam="2">  1       21 0.73907420E-01 0.18482076E+03</pdfrwt>
<totfact> 0.99172992E+04</totfact>
</mgrwt>
</event>
<event>
 4    1  0.4263413E+000  0.1858732E+03  0.7546771E-02  0.1162237E+00
         21   -1    0    0  501  502  0.00000000000E+00  0.00000000000E+00  0.12979870081E+03  0.12979870081E+03  0.00000000000E+00 0. -1.
         21   -1    0    0  502  503 -0.00000000000E+00 -0.00000000000E+00 -0.45765326780E+03  0.45765326780E+03  0.00000000000E+00 0. -1.
          6    1    1    2  501    0 -0.14953972369E+02  0.66304047450E+02  0.26065294283E+02  0.18769189531E+03  0.17300000000E+03 0. -1.
         -6    1    1    2    0  503  0.14953972369E+02 -0.66304047450E+02 -0.35391986128E+03  0.39976007330E+03  0.17300000000E+03 0. -1.
<mgrwt>
<rscale>  2 0.18587320E+03</rscale>
<asrwt>0</asrwt>
<pdfrwt beam="1">  1       21 0.19969031E-01 0.18587320E+03</pdfrwt>
<pdfrwt beam="2">  1       21 0.70408196E-01 0.18587320E+03</pdfrwt>
<totfact> 0.42491070E+04</totfact>
</mgrwt>
</event>
<event>
 4    1  0.4263413E+000  0.2960168E+03  0.7546771E-02  0.1087249E+00
         21   -1    0    0  503  502  0.00000000000E+00  0.00000000000E+00  0.26359950989E+03  0.26359950989E+03  0.00000000000E+00 0. -1.
         21   -1    0    0  501  503 -0.00000000000E+00 -0.00000000000E+00 -0.41456343789E+03  0.41456343789E+03  0.00000000000E+00 0.  1.
          6    1    1    2  501    0 -0.18897427510E+03  0.14827572629E+03 -0.22641795452E+03  0.37268090612E+03  0.17300000000E+03 0.  1.
         -6    1    1    2    0  502  0.18897427510E+03 -0.14827572629E+03  0.75454026524E+02  0.30548204166E+03  0.17300000000E+03 0. -1.
<mgrwt>
<rscale>  2 0.29601684E+03</rscale>
<asrwt>0</asrwt>
<pdfrwt beam="1">  1       21 0.40553771E-01 0.29601684E+03</pdfrwt>
<pdfrwt beam="2">  1       21 0.63778990E-01 0.29601684E+03</pdfrwt>
<totfact> 0.12577635E+04</totfact>
</mgrwt>
</event>
<event>
 4    1  0.4263413E+000  0.1772075E+03  0.7546771E-02  0.1170533E+00
         21   -1    0    0  501  502  0.00000000000E+00  0.00000000000E+00  0.16219550372E+03  0.16219550372E+03  0.00000000000E+00 0. -1.
         21   -1    0    0  502  503 -0.00000000000E+00 -0.00000000000E+00 -0.19628474031E+03  0.19628474031E+03  0.00000000000E+00 0. -1.
          6    1    1    2  501    0  0.18557050375E+01 -0.38341227836E+02 -0.37972337073E+02  0.18123021761E+03  0.17300000000E+03 0.  1.
         -6    1    1    2    0  503 -0.18557050375E+01  0.38341227836E+02  0.38831004857E+01  0.17725002641E+03  0.17300000000E+03 0.  1.
<mgrwt>
<rscale>  2 0.17720749E+03</rscale>
<asrwt>0</asrwt>
<pdfrwt beam="1">  1       21 0.24953154E-01 0.17720749E+03</pdfrwt>
<pdfrwt beam="2">  1       21 0.30197652E-01 0.17720749E+03</pdfrwt>
<totfact> 0.16069954E+05</totfact>
</mgrwt>
</event>
<event>
 4    1  0.4263413E+000  0.2309877E+03  0.7546771E-02  0.1125946E+00
         21   -1    0    0  503  502  0.00000000000E+00  0.00000000000E+00  0.37336420055E+03  0.37336420055E+03  0.00000000000E+00 0.  1.
         21   -1    0    0  501  503 -0.00000000000E+00 -0.00000000000E+00 -0.16970942927E+03  0.16970942927E+03  0.00000000000E+00 0.  1.
          6    1    1    2  501    0 -0.17258063520E+02  0.15208052625E+03 -0.60884490524E+01  0.23106794766E+03  0.17300000000E+03 0.  1.
         -6    1    1    2    0  502  0.17258063520E+02 -0.15208052625E+03  0.20974322033E+03  0.31200568216E+03  0.17300000000E+03 0.  1.
<mgrwt>
<rscale>  2 0.23098772E+03</rscale>
<asrwt>0</asrwt>
<pdfrwt beam="1">  1       21 0.57440646E-01 0.23098772E+03</pdfrwt>
<pdfrwt beam="2">  1       21 0.26109143E-01 0.23098772E+03</pdfrwt>
<totfact> 0.38907525E+04</totfact>
</mgrwt>
</event>
<event>
 4    1  0.4263413E+000  0.2958995E+03  0.7546771E-02  0.1087309E+00
         21   -1    0    0  501  502  0.00000000000E+00  0.00000000000E+00  0.50064796992E+02  0.50064796992E+02  0.00000000000E+00 0.  1.
         21   -1    0    0  502  503 -0.00000000000E+00 -0.00000000000E+00 -0.17559491629E+04  0.17559491629E+04  0.00000000000E+00 0.  1.
          6    1    1    2  501    0 -0.22148260248E+03  0.92590348054E+02 -0.79558162756E+03  0.84882662650E+03  0.17300000000E+03 0.  1.
         -6    1    1    2    0  503  0.22148260248E+03 -0.92590348054E+02 -0.91030273834E+03  0.95718733338E+03  0.17300000000E+03 0.  1.
<mgrwt>
<rscale>  2 0.29589950E+03</rscale>
<asrwt>0</asrwt>
<pdfrwt beam="1">  1       21 0.77022759E-02 0.29589950E+03</pdfrwt>
<pdfrwt beam="2">  1       21 0.27014604E+00 0.29589950E+03</pdfrwt>
<totfact> 0.59523243E+03</totfact>
</mgrwt>
</event>
<event>
 4    1  0.4263413E+000  0.1744578E+03  0.7546771E-02  0.1173277E+00
         21   -1    0    0  501  502  0.00000000000E+00  0.00000000000E+00  0.47724960429E+03  0.47724960429E+03  0.00000000000E+00 0. -1.
         21   -1    0    0  502  503 -0.00000000000E+00 -0.00000000000E+00 -0.31790887498E+03  0.31790887498E+03  0.00000000000E+00 0. -1.
          6    1    1    2  501    0 -0.21592041596E+02  0.63494485568E+01  0.43514249172E+03  0.46881181710E+03  0.17300000000E+03 0. -1.
         -6    1    1    2    0  503  0.21592041596E+02 -0.63494485568E+01 -0.27580176241E+03  0.32634666216E+03  0.17300000000E+03 0. -1.
<mgrwt>
<rscale>  2 0.17445782E+03</rscale>
<asrwt>0</asrwt>
<pdfrwt beam="1">  1       21 0.73423016E-01 0.17445782E+03</pdfrwt>
<pdfrwt beam="2">  1       21 0.48909058E-01 0.17445782E+03</pdfrwt>
<totfact> 0.67433432E+03</totfact>
</mgrwt>
</event>
<event>
 4    1  0.4263413E+000  0.1854232E+03  0.7546771E-02  0.1162655E+00
         21   -1    0    0  501  502  0.00000000000E+00  0.00000000000E+00  0.18540562625E+03  0.18540562625E+03  0.00000000000E+00 0.  1.
         21   -1    0    0  502  503 -0.00000000000E+00 -0.00000000000E+00 -0.47644773755E+03  0.47644773755E+03  0.00000000000E+00 0. -1.
          6    1    1    2  501    0  0.59340316963E+02  0.30520601503E+02  0.11310708084E+03  0.21719804804E+03  0.17300000000E+03 0.  1.
         -6    1    1    2    0  503 -0.59340316963E+02 -0.30520601503E+02 -0.40414919214E+03  0.44465531577E+03  0.17300000000E+03 0. -1.
<mgrwt>
<rscale>  2 0.18542325E+03</rscale>
<asrwt>0</asrwt>
<pdfrwt beam="1">  1       21 0.28523943E-01 0.18542325E+03</pdfrwt>
<pdfrwt beam="2">  1       21 0.73299651E-01 0.18542325E+03</pdfrwt>
<totfact> 0.19752982E+04</totfact>
</mgrwt>
</event>
<event>
 4    1  0.4263413E+000  0.1982470E+03  0.7546771E-02  0.1151226E+00
         21   -1    0    0  501  502  0.00000000000E+00  0.00000000000E+00  0.28059765840E+03  0.28059765840E+03  0.00000000000E+00 0.  1.
         21   -1    0    0  502  503 -0.00000000000E+00 -0.00000000000E+00 -0.24891077835E+03  0.24891077835E+03  0.00000000000E+00 0.  1.
          6    1    1    2  501    0 -0.69941632266E+02 -0.66940590019E+02  0.19091963179E+03  0.27523113981E+03  0.17300000000E+03 0.  1.
         -6    1    1    2    0  503  0.69941632266E+02  0.66940590019E+02 -0.15923275174E+03  0.25427729695E+03  0.17300000000E+03 0.  1.
<mgrwt>
<rscale>  2 0.19824700E+03</rscale>
<asrwt>0</asrwt>
<pdfrwt beam="1">  1       21 0.43168871E-01 0.19824700E+03</pdfrwt>
<pdfrwt beam="2">  1       21 0.38293966E-01 0.19824700E+03</pdfrwt>
<totfact> 0.33827454E+04</totfact>
</mgrwt>
</event>
<event>
 4    1  0.4263413E+000  0.1837700E+03  0.7546771E-02  0.1164203E+00
         21   -1    0    0  501  502  0.00000000000E+00  0.00000000000E+00  0.78150684136E+03  0.78150684136E+03  0.00000000000E+00 0. -1.
         21   -1    0    0  502  503 -0.00000000000E+00 -0.00000000000E+00 -0.91431354725E+02  0.91431354725E+02  0.00000000000E+00 0. -1.
          6    1    1    2  501    0  0.35372058108E+02  0.50904154281E+02  0.66200265930E+03  0.68703634281E+03  0.17300000000E+03 0. -1.
         -6    1    1    2    0  503 -0.35372058108E+02 -0.50904154281E+02  0.28072827337E+02  0.18590185328E+03  0.17300000000E+03 0. -1.
<mgrwt>
<rscale>  2 0.18377001E+03</rscale>
<asrwt>0</asrwt>
<pdfrwt beam="1">  1       21 0.12023182E+00 0.18377001E+03</pdfrwt>
<pdfrwt beam="2">  1       21 0.14066363E-01 0.18377001E+03</pdfrwt>
<totfact> 0.23296801E+04</totfact>
</mgrwt>
</event>
<event>
 4    1  0.4263413E+000  0.1932516E+03  0.7546771E-02  0.1155561E+00
         21   -1    0    0  503  502  0.00000000000E+00  0.00000000000E+00  0.27088811743E+02  0.27088811743E+02  0.00000000000E+00 0.  1.
         21   -1    0    0  501  503 -0.00000000000E+00 -0.00000000000E+00 -0.13835712551E+04  0.13835712551E+04  0.00000000000E+00 0.  1.
          6    1    1    2  501    0 -0.85112679457E+02  0.13152993104E+02 -0.72027878981E+03  0.74575311229E+03  0.17300000000E+03 0.  1.
         -6    1    1    2    0  502  0.85112679457E+02 -0.13152993104E+02 -0.63620365352E+03  0.66490695453E+03  0.17300000000E+03 0.  1.
<mgrwt>
<rscale>  2 0.19325157E+03</rscale>
<asrwt>0</asrwt>
<pdfrwt beam="1">  1       21 0.41675080E-02 0.19325157E+03</pdfrwt>
<pdfrwt beam="2">  1       21 0.21285719E+00 0.19325157E+03</pdfrwt>
<totfact> 0.40719784E+04</totfact>
</mgrwt>
</event>
<event>
 4    1  0.4263413E+000  0.2472881E+03  0.7546771E-02  0.1115031E+00
         21   -1    0    0  503  502  0.00000000000E+00  0.00000000000E+00  0.11830544967E+04  0.11830544967E+04  0.00000000000E+00 0. -1.
         21   -1    0    0  501  503 -0.00000000000E+00 -0.00000000000E+00 -0.52441937111E+02  0.52441937111E+02  0.00000000000E+00 0.  1.
          6    1    1    2  501    0 -0.10133913917E+03 -0.14475071124E+03  0.63930650946E+03  0.68546641243E+03  0.17300000000E+03 0.  1.
         -6    1    1    2    0  502  0.10133913917E+03  0.14475071124E+03  0.49130605015E+03  0.55003002141E+03  0.17300000000E+03 0. -1.
<mgrwt>
<rscale>  2 0.24728807E+03</rscale>
<asrwt>0</asrwt>
<pdfrwt beam="1">  1       21 0.18200836E+00 0.24728807E+03</pdfrwt>
<pdfrwt beam="2">  1       21 0.80679912E-02 0.24728807E+03</pdfrwt>
<totfact> 0.20113527E+04</totfact>
</mgrwt>
</event>
<event>
 4    1  0.4263413E+000  0.3199651E+03  0.7546771E-02  0.1075665E+00
         21   -1    0    0  501  502  0.00000000000E+00  0.00000000000E+00  0.65540385501E+02  0.65540385501E+02  0.00000000000E+00 0. -1.
         21   -1    0    0  502  503 -0.00000000000E+00 -0.00000000000E+00 -0.15700608338E+04  0.15700608338E+04  0.00000000000E+00 0.  1.
          6    1    1    2  501    0 -0.19691018136E+03  0.18350754155E+03 -0.69386020661E+03  0.76408090124E+03  0.17300000000E+03 0.  1.
         -6    1    1    2    0  503  0.19691018136E+03 -0.18350754155E+03 -0.81066024166E+03  0.87152031803E+03  0.17300000000E+03 0. -1.
<mgrwt>
<rscale>  2 0.31996506E+03</rscale>
<asrwt>0</asrwt>
<pdfrwt beam="1">  1       21 0.10083136E-01 0.31996506E+03</pdfrwt>
<pdfrwt beam="2">  1       21 0.24154782E+00 0.31996506E+03</pdfrwt>
<totfact> 0.54023057E+03</totfact>
</mgrwt>
</event>
<event>
 4    1  0.4263413E+000  0.2078064E+03  0.7546771E-02  0.1143315E+00
         21   -1    0    0  501  502  0.00000000000E+00  0.00000000000E+00  0.13138444839E+03  0.13138444839E+03  0.00000000000E+00 0.  1.
         21   -1    0    0  502  503 -0.00000000000E+00 -0.00000000000E+00 -0.33241082946E+03  0.33241082946E+03  0.00000000000E+00 0. -1.
          6    1    1    2  501    0  0.10462773783E+03  0.48036684762E+02 -0.75946818993E+02  0.22124964615E+03  0.17300000000E+03 0.  1.
         -6    1    1    2    0  503 -0.10462773783E+03 -0.48036684762E+02 -0.12507956207E+03  0.24254563170E+03  0.17300000000E+03 0.  1.
<mgrwt>
<rscale>  2 0.20780637E+03</rscale>
<asrwt>0</asrwt>
<pdfrwt beam="1">  1       21 0.20212992E-01 0.20780637E+03</pdfrwt>
<pdfrwt beam="2">  1       21 0.51140127E-01 0.20780637E+03</pdfrwt>
<totfact> 0.81734163E+04</totfact>
</mgrwt>
</event>
<event>
 4    1  0.4263413E+000  0.4220459E+03  0.7546771E-02  0.1036402E+00
         21   -1    0    0  503  502  0.00000000000E+00  0.00000000000E+00  0.54459664018E+03  0.54459664018E+03  0.00000000000E+00 0. -1.
         21   -1    0    0  501  503 -0.00000000000E+00 -0.00000000000E+00 -0.52648851294E+03  0.52648851294E+03  0.00000000000E+00 0.  1.
          6    1    1    2  501    0  0.19020691579E+02  0.38448924740E+03 -0.32053986361E+03  0.52997035034E+03  0.17300000000E+03 0.  1.
         -6    1    1    2    0  502 -0.19020691579E+02 -0.38448924740E+03  0.33864799085E+03  0.54111480278E+03  0.17300000000E+03 0. -1.
<mgrwt>
<rscale>  2 0.42204593E+03</rscale>
<asrwt>0</asrwt>
<pdfrwt beam="1">  1       21 0.83784099E-01 0.42204593E+03</pdfrwt>
<pdfrwt beam="2">  1       21 0.80998232E-01 0.42204593E+03</pdfrwt>
<totfact> 0.14355439E+03</totfact>
</mgrwt>
</event>
<event>
 4    1  0.4263413E+000  0.1762964E+03  0.7546771E-02  0.1171436E+00
         21   -1    0    0  503  502  0.00000000000E+00  0.00000000000E+00  0.18892692234E+03  0.18892692234E+03  0.00000000000E+00 0.  1.
         21   -1    0    0  501  503 -0.00000000000E+00 -0.00000000000E+00 -0.43795642504E+03  0.43795642504E+03  0.00000000000E+00 0. -1.
          6    1    1    2  501    0  0.21967070114E+02 -0.25862362062E+02 -0.37218692659E+03  0.41182948203E+03  0.17300000000E+03 0. -1.
         -6    1    1    2    0  502 -0.21967070114E+02  0.25862362062E+02  0.12315742390E+03  0.21505386535E+03  0.17300000000E+03 0.  1.
<mgrwt>
<rscale>  2 0.17629638E+03</rscale>
<asrwt>0</asrwt>
<pdfrwt beam="1">  1       21 0.29065681E-01 0.17629638E+03</pdfrwt>
<pdfrwt beam="2">  1       21 0.67377911E-01 0.17629638E+03</pdfrwt>
<totfact> 0.23055926E+04</totfact>
</mgrwt>
</event>
<event>
 4    1  0.4263413E+000  0.1958886E+03  0.7546771E-02  0.1153255E+00
         21   -1    0    0  501  502  0.00000000000E+00  0.00000000000E+00  0.64635938278E+03  0.64635938278E+03  0.00000000000E+00 0.  1.
         21   -1    0    0  502  503 -0.00000000000E+00 -0.00000000000E+00 -0.73312482256E+02  0.73312482256E+02  0.00000000000E+00 0.  1.
          6    1    1    2  501    0  0.90784955108E+02 -0.14192250859E+02  0.44346375432E+03  0.48480143301E+03  0.17300000000E+03 0.  1.
         -6    1    1    2    0  503 -0.90784955108E+02  0.14192250859E+02  0.12958314621E+03  0.23487043203E+03  0.17300000000E+03 0.  1.
<mgrwt>
<rscale>  2 0.19588856E+03</rscale>
<asrwt>0</asrwt>
<pdfrwt beam="1">  1       21 0.99439901E-01 0.19588856E+03</pdfrwt>
<pdfrwt beam="2">  1       21 0.11278844E-01 0.19588856E+03</pdfrwt>
<totfact> 0.54445066E+04</totfact>
</mgrwt>
</event>
<event>
 4    1  0.4263413E+000  0.2447943E+03  0.7546771E-02  0.1116640E+00
         21   -1    0    0  501  502  0.00000000000E+00  0.00000000000E+00  0.53052626377E+03  0.53052626377E+03  0.00000000000E+00 0. -1.
         21   -1    0    0  502  503 -0.00000000000E+00 -0.00000000000E+00 -0.11752538448E+03  0.11752538448E+03  0.00000000000E+00 0.  1.
          6    1    1    2  501    0 -0.15375071397E+02 -0.17250751806E+03  0.27041674917E+03  0.36475944791E+03  0.17300000000E+03 0. -1.
         -6    1    1    2    0  503  0.15375071397E+02  0.17250751806E+03  0.14258413012E+03  0.28329220033E+03  0.17300000000E+03 0. -1.
<mgrwt>
<rscale>  2 0.24479427E+03</rscale>
<asrwt>0</asrwt>
<pdfrwt beam="1">  1       21 0.81619424E-01 0.24479427E+03</pdfrwt>
<pdfrwt beam="2">  1       21 0.18080829E-01 0.24479427E+03</pdfrwt>
<totfact> 0.35659740E+04</totfact>
</mgrwt>
</event>
<event>
 4    1  0.4263413E+000  0.1765878E+03  0.7546771E-02  0.1171147E+00
         21   -1    0    0  501  502  0.00000000000E+00  0.00000000000E+00  0.15209667133E+03  0.15209667133E+03  0.00000000000E+00 0.  1.
         21   -1    0    0  502  503 -0.00000000000E+00 -0.00000000000E+00 -0.21145249012E+03  0.21145249012E+03  0.00000000000E+00 0.  1.
          6    1    1    2  501    0  0.31859119789E+01 -0.35271596360E+02  0.20201625530E+01  0.17659931088E+03  0.17300000000E+03 0. -1.
         -6    1    1    2    0  503 -0.31859119789E+01  0.35271596360E+02 -0.61375981341E+02  0.18694985058E+03  0.17300000000E+03 0. -1.
<mgrwt>
<rscale>  2 0.17658776E+03</rscale>
<asrwt>0</asrwt>
<pdfrwt beam="1">  1       21 0.23399488E-01 0.17658776E+03</pdfrwt>
<pdfrwt beam="2">  1       21 0.32531152E-01 0.17658776E+03</pdfrwt>
<totfact> 0.15700679E+05</totfact>
</mgrwt>
</event>
<event>
 4    1  0.4263413E+000  0.1868694E+03  0.7546771E-02  0.1161316E+00
         21   -1    0    0  503  502  0.00000000000E+00  0.00000000000E+00  0.41592001928E+03  0.41592001928E+03  0.00000000000E+00 0. -1.
         21   -1    0    0  501  503 -0.00000000000E+00 -0.00000000000E+00 -0.21436874726E+03  0.21436874726E+03  0.00000000000E+00 0. -1.
          6    1    1    2  501    0 -0.64577197498E+02 -0.28652367385E+02 -0.14502561463E+03  0.23654302250E+03  0.17300000000E+03 0. -1.
         -6    1    1    2    0  502  0.64577197498E+02  0.28652367385E+02  0.34657688664E+03  0.39374574404E+03  0.17300000000E+03 0. -1.
<mgrwt>
<rscale>  2 0.18686940E+03</rscale>
<asrwt>0</asrwt>
<pdfrwt beam="1">  1       21 0.63987695E-01 0.18686940E+03</pdfrwt>
<pdfrwt beam="2">  1       21 0.32979807E-01 0.18686940E+03</pdfrwt>
<totfact> 0.20029470E+04</totfact>
</mgrwt>
</event>
<event>
 4    1  0.4263413E+000  0.1949624E+03  0.7546771E-02  0.1154060E+00
         21   -1    0    0  501  502  0.00000000000E+00  0.00000000000E+00  0.23364395685E+03  0.23364395685E+03  0.00000000000E+00 0.  1.
         21   -1    0    0  502  503 -0.00000000000E+00 -0.00000000000E+00 -0.17071459539E+03  0.17071459539E+03  0.00000000000E+00 0.  1.
          6    1    1    2  501    0  0.23244172254E+01  0.89866149682E+02 -0.12383612760E+02  0.19535527031E+03  0.17300000000E+03 0.  1.
         -6    1    1    2    0  503 -0.23244172254E+01 -0.89866149682E+02  0.75312974219E+02  0.20900328194E+03  0.17300000000E+03 0.  1.
<mgrwt>
<rscale>  2 0.19496238E+03</rscale>
<asrwt>0</asrwt>
<pdfrwt beam="1">  1       21 0.35945224E-01 0.19496238E+03</pdfrwt>
<pdfrwt beam="2">  1       21 0.26263784E-01 0.19496238E+03</pdfrwt>
<totfact> 0.10277322E+05</totfact>
</mgrwt>
</event>
<event>
 4    1  0.4263413E+000  0.2133474E+03  0.7546771E-02  0.1138942E+00
         21   -1    0    0  501  502  0.00000000000E+00  0.00000000000E+00  0.30677857351E+03  0.30677857351E+03  0.00000000000E+00 0. -1.
         21   -1    0    0  502  503 -0.00000000000E+00 -0.00000000000E+00 -0.14839203549E+03  0.14839203549E+03  0.00000000000E+00 0.  1.
          6    1    1    2  501    0 -0.19346299221E+02  0.12334435400E+03  0.76497335562E+02  0.22664719567E+03  0.17300000000E+03 0.  1.
         -6    1    1    2    0  503  0.19346299221E+02 -0.12334435400E+03  0.81889202458E+02  0.22852341332E+03  0.17300000000E+03 0.  1.
<mgrwt>
<rscale>  2 0.21334739E+03</rscale>
<asrwt>0</asrwt>
<pdfrwt beam="1">  1       21 0.47196704E-01 0.21334739E+03</pdfrwt>
<pdfrwt beam="2">  1       21 0.22829544E-01 0.21334739E+03</pdfrwt>
<totfact> 0.76632155E+04</totfact>
</mgrwt>
</event>
<event>
 4    1  0.4263413E+000  0.2099594E+03  0.7546771E-02  0.1141598E+00
         21   -1    0    0  501  502  0.00000000000E+00  0.00000000000E+00  0.97666837806E+03  0.97666837806E+03  0.00000000000E+00 0.  1.
         21   -1    0    0  502  503 -0.00000000000E+00 -0.00000000000E+00 -0.54943469728E+02  0.54943469728E+02  0.00000000000E+00 0.  1.
          6    1    1    2  501    0  0.84849756560E+01 -0.11866741862E+03  0.24293813190E+03  0.32109482554E+03  0.17300000000E+03 0.  1.
         -6    1    1    2    0  503 -0.84849756560E+01  0.11866741862E+03  0.67878677643E+03  0.71051702225E+03  0.17300000000E+03 0.  1.
<mgrwt>
<rscale>  2 0.20995940E+03</rscale>
<asrwt>0</asrwt>
<pdfrwt beam="1">  1       21 0.15025666E+00 0.20995940E+03</pdfrwt>
<pdfrwt beam="2">  1       21 0.84528422E-02 0.20995940E+03</pdfrwt>
<totfact> 0.32096870E+04</totfact>
</mgrwt>
</event>
<event>
 4    1  0.4263413E+000  0.2888775E+03  0.7546771E-02  0.1090937E+00
         21   -1    0    0  501  502  0.00000000000E+00  0.00000000000E+00  0.86839340843E+03  0.86839340843E+03  0.00000000000E+00 0.  1.
         21   -1    0    0  502  503 -0.00000000000E+00 -0.00000000000E+00 -0.34283334727E+03  0.34283334727E+03  0.00000000000E+00 0. -1.
          6    1    1    2  501    0  0.15997061907E+03 -0.16712447681E+03  0.77655188060E+03  0.82854270438E+03  0.17300000000E+03 0.  1.
         -6    1    1    2    0  503 -0.15997061907E+03  0.16712447681E+03 -0.25099181944E+03  0.38268405132E+03  0.17300000000E+03 0. -1.
<mgrwt>
<rscale>  2 0.28887746E+03</rscale>
<asrwt>0</asrwt>
<pdfrwt beam="1">  1       21 0.13359899E+00 0.28887746E+03</pdfrwt>
<pdfrwt beam="2">  1       21 0.52743592E-01 0.28887746E+03</pdfrwt>
<totfact> 0.12702166E+03</totfact>
</mgrwt>
</event>
<event>
 4    1  0.4263413E+000  0.2085483E+03  0.7546771E-02  0.1142721E+00
         21   -1    0    0  503  502  0.00000000000E+00  0.00000000000E+00  0.97760638717E+02  0.97760638717E+02  0.00000000000E+00 0. -1.
         21   -1    0    0  501  503 -0.00000000000E+00 -0.00000000000E+00 -0.45450704657E+03  0.45450704657E+03  0.00000000000E+00 0.  1.
          6    1    1    2  501    0  0.10229400711E+03 -0.55671558727E+02 -0.21854762931E+03  0.30208517445E+03  0.17300000000E+03 0. -1.
         -6    1    1    2    0  502 -0.10229400711E+03  0.55671558727E+02 -0.13819877854E+03  0.25018251084E+03  0.17300000000E+03 0.  1.
<mgrwt>
<rscale>  2 0.20854828E+03</rscale>
<asrwt>0</asrwt>
<pdfrwt beam="1">  1       21 0.15040098E-01 0.20854828E+03</pdfrwt>
<pdfrwt beam="2">  1       21 0.69924161E-01 0.20854828E+03</pdfrwt>
<totfact> 0.71991761E+04</totfact>
</mgrwt>
</event>
<event>
 4    1  0.4263413E+000  0.2705829E+03  0.7546771E-02  0.1100946E+00
         21   -1    0    0  503  502  0.00000000000E+00  0.00000000000E+00  0.39787874751E+02  0.39787874751E+02  0.00000000000E+00 0.  1.
         21   -1    0    0  501  503 -0.00000000000E+00 -0.00000000000E+00 -0.18558731673E+04  0.18558731673E+04  0.00000000000E+00 0. -1.
          6    1    1    2  501    0  0.24873159644E+02 -0.20656098600E+03 -0.82076262181E+03  0.86421432317E+03  0.17300000000E+03 0.  1.
         -6    1    1    2    0  502 -0.24873159644E+02  0.20656098600E+03 -0.99532267077E+03  0.10314467189E+04  0.17300000000E+03 0. -1.
<mgrwt>
<rscale>  2 0.27058292E+03</rscale>
<asrwt>0</asrwt>
<pdfrwt beam="1">  1       21 0.61212128E-02 0.27058292E+03</pdfrwt>
<pdfrwt beam="2">  1       21 0.28551889E+00 0.27058292E+03</pdfrwt>
<totfact> 0.73390055E+03</totfact>
</mgrwt>
</event>
<event>
 4    1  0.4263413E+000  0.1832698E+03  0.7546771E-02  0.1164675E+00
         21   -1    0    0  501  502  0.00000000000E+00  0.00000000000E+00  0.29066251526E+04  0.29066251526E+04  0.00000000000E+00 0.  1.
         21   -1    0    0  502  503 -0.00000000000E+00 -0.00000000000E+00 -0.11562022047E+02  0.11562022047E+02  0.00000000000E+00 0. -1.
          6    1    1    2  501    0  0.90717394540E+01  0.59804167697E+02  0.14818848632E+04  0.14931746659E+04  0.17300000000E+03 0.  1.
         -6    1    1    2    0  503 -0.90717394540E+01 -0.59804167697E+02  0.14131782673E+04  0.14250125087E+04  0.17300000000E+03 0. -1.
<mgrwt>
<rscale>  2 0.18326984E+03</rscale>
<asrwt>0</asrwt>
<pdfrwt beam="1">  1       21 0.44717252E+00 0.18326984E+03</pdfrwt>
<pdfrwt beam="2">  1       21 0.17787749E-02 0.18326984E+03</pdfrwt>
<totfact> 0.65561811E+03</totfact>
</mgrwt>
</event>
<event>
 4    1  0.4263413E+000  0.1799493E+03  0.7546771E-02  0.1167852E+00
         21   -1    0    0  501  502  0.00000000000E+00  0.00000000000E+00  0.81486252726E+02  0.81486252726E+02  0.00000000000E+00 0.  1.
         21   -1    0    0  502  503 -0.00000000000E+00 -0.00000000000E+00 -0.41646321300E+03  0.41646321300E+03  0.00000000000E+00 0.  1.
          6    1    1    2  501    0  0.13715459360E+02 -0.47588221659E+02 -0.11420549295E+03  0.21313058740E+03  0.17300000000E+03 0.  1.
         -6    1    1    2    0  503 -0.13715459360E+02  0.47588221659E+02 -0.22077146733E+03  0.28481887833E+03  0.17300000000E+03 0.  1.
<mgrwt>
<rscale>  2 0.17994931E+03</rscale>
<asrwt>0</asrwt>
<pdfrwt beam="1">  1       21 0.12536346E-01 0.17994931E+03</pdfrwt>
<pdfrwt beam="2">  1       21 0.64071264E-01 0.17994931E+03</pdfrwt>
<totfact> 0.12257327E+05</totfact>
</mgrwt>
</event>
<event>
 4    1  0.4263413E+000  0.2990541E+03  0.7546771E-02  0.1085714E+00
         21   -1    0    0  503  502  0.00000000000E+00  0.00000000000E+00  0.54555035133E+03  0.54555035133E+03  0.00000000000E+00 0.  1.
         21   -1    0    0  501  503 -0.00000000000E+00 -0.00000000000E+00 -0.21838470878E+03  0.21838470878E+03  0.00000000000E+00 0.  1.
          6    1    1    2  501    0 -0.63340537012E+02  0.23556811993E+03 -0.27149193835E+02  0.30028393477E+03  0.17300000000E+03 0.  1.
         -6    1    1    2    0  502  0.63340537012E+02 -0.23556811993E+03  0.35431483639E+03  0.46365112535E+03  0.17300000000E+03 0.  1.
<mgrwt>
<rscale>  2 0.29905411E+03</rscale>
<asrwt>0</asrwt>
<pdfrwt beam="1">  1       21 0.83930823E-01 0.29905411E+03</pdfrwt>
<pdfrwt beam="2">  1       21 0.33597648E-01 0.29905411E+03</pdfrwt>
<totfact> 0.99053454E+03</totfact>
</mgrwt>
</event>
<event>
 4    1  0.4263413E+000  0.1925895E+03  0.7546771E-02  0.1156146E+00
         21   -1    0    0  501  502  0.00000000000E+00  0.00000000000E+00  0.88985254322E+03  0.88985254322E+03  0.00000000000E+00 0. -1.
         21   -1    0    0  502  503 -0.00000000000E+00 -0.00000000000E+00 -0.16011079863E+03  0.16011079863E+03  0.00000000000E+00 0. -1.
          6    1    1    2  501    0  0.82025138654E+02  0.20822594519E+02  0.81637607435E+03  0.83878519216E+03  0.17300000000E+03 0. -1.
         -6    1    1    2    0  503 -0.82025138654E+02 -0.20822594519E+02 -0.86634329758E+02  0.21117814969E+03  0.17300000000E+03 0. -1.
<mgrwt>
<rscale>  2 0.19258947E+03</rscale>
<asrwt>0</asrwt>
<pdfrwt beam="1">  1       21 0.13690039E+00 0.19258947E+03</pdfrwt>
<pdfrwt beam="2">  1       21 0.24632431E-01 0.19258947E+03</pdfrwt>
<totfact> 0.59070059E+03</totfact>
</mgrwt>
</event>
<event>
 4    1  0.4263413E+000  0.1860114E+03  0.7546771E-02  0.1162109E+00
         21   -1    0    0  503  502  0.00000000000E+00  0.00000000000E+00  0.13108713991E+03  0.13108713991E+03  0.00000000000E+00 0. -1.
         21   -1    0    0  501  503 -0.00000000000E+00 -0.00000000000E+00 -0.31593426917E+03  0.31593426917E+03  0.00000000000E+00 0. -1.
          6    1    1    2  501    0 -0.68267052379E+02 -0.32929595871E+01 -0.18308922548E+03  0.26100172128E+03  0.17300000000E+03 0.  1.
         -6    1    1    2    0  502  0.68267052379E+02  0.32929595871E+01 -0.17579037845E+01  0.18601968780E+03  0.17300000000E+03 0.  1.
<mgrwt>
<rscale>  2 0.18601138E+03</rscale>
<asrwt>0</asrwt>
<pdfrwt beam="1">  1       21 0.20167252E-01 0.18601138E+03</pdfrwt>
<pdfrwt beam="2">  1       21 0.48605272E-01 0.18601138E+03</pdfrwt>
<totfact> 0.92085805E+04</totfact>
</mgrwt>
</event>
<event>
 4    1  0.4263413E+000  0.2727450E+03  0.7546771E-02  0.1099719E+00
         21   -1    0    0  501  502  0.00000000000E+00  0.00000000000E+00  0.21038332158E+03  0.21038332158E+03  0.00000000000E+00 0.  1.
         21   -1    0    0  502  503 -0.00000000000E+00 -0.00000000000E+00 -0.35476516316E+03  0.35476516316E+03  0.00000000000E+00 0. -1.
          6    1    1    2  501    0 -0.72043840609E+02  0.19816789646E+03 -0.88441433308E+02  0.28672585737E+03  0.17300000000E+03 0.  1.
         -6    1    1    2    0  503  0.72043840609E+02 -0.19816789646E+03 -0.55940408271E+02  0.27842262738E+03  0.17300000000E+03 0.  1.
<mgrwt>
<rscale>  2 0.27274499E+03</rscale>
<asrwt>0</asrwt>
<pdfrwt beam="1">  1       21 0.32366665E-01 0.27274499E+03</pdfrwt>
<pdfrwt beam="2">  1       21 0.54579255E-01 0.27274499E+03</pdfrwt>
<totfact> 0.28006546E+04</totfact>
</mgrwt>
</event>
<event>
 4    1  0.4263413E+000  0.1995611E+03  0.7546771E-02  0.1150110E+00
         21   -1    0    0  503  502  0.00000000000E+00  0.00000000000E+00  0.13031308482E+04  0.13031308482E+04  0.00000000000E+00 0.  1.
         21   -1    0    0  501  503 -0.00000000000E+00 -0.00000000000E+00 -0.43124673712E+02  0.43124673712E+02  0.00000000000E+00 0.  1.
          6    1    1    2  501    0 -0.82635355233E+02 -0.55380844272E+02  0.26667627252E+03  0.33307788004E+03  0.17300000000E+03 0.  1.
         -6    1    1    2    0  502  0.82635355233E+02  0.55380844272E+02  0.99332990200E+03  0.10131776419E+04  0.17300000000E+03 0.  1.
<mgrwt>
<rscale>  2 0.19956112E+03</rscale>
<asrwt>0</asrwt>
<pdfrwt beam="1">  1       21 0.20048164E+00 0.19956112E+03</pdfrwt>
<pdfrwt beam="2">  1       21 0.66345662E-02 0.19956112E+03</pdfrwt>
<totfact> 0.22005577E+04</totfact>
</mgrwt>
</event>
<event>
 4    1  0.4263413E+000  0.1854752E+03  0.7546771E-02  0.1162607E+00
         21   -1    0    0  503  502  0.00000000000E+00  0.00000000000E+00  0.10093091507E+04  0.10093091507E+04  0.00000000000E+00 0.  1.
         21   -1    0    0  501  503 -0.00000000000E+00 -0.00000000000E+00 -0.47026126938E+02  0.47026126938E+02  0.00000000000E+00 0. -1.
          6    1    1    2  501    0  0.39301099137E+02 -0.54105969716E+02  0.20405885443E+03  0.27575541413E+03  0.17300000000E+03 0. -1.
         -6    1    1    2    0  502 -0.39301099137E+02  0.54105969716E+02  0.75822416934E+03  0.78057986351E+03  0.17300000000E+03 0.  1.
<mgrwt>
<rscale>  2 0.18547515E+03</rscale>
<asrwt>0</asrwt>
<pdfrwt beam="1">  1       21 0.15527831E+00 0.18547515E+03</pdfrwt>
<pdfrwt beam="2">  1       21 0.72347895E-02 0.18547515E+03</pdfrwt>
<totfact> 0.39140369E+04</totfact>
</mgrwt>
</event>
<event>
 4    1  0.4263413E+000  0.3298960E+03  0.7546771E-02  0.1071183E+00
         21   -1    0    0  501  502  0.00000000000E+00  0.00000000000E+00  0.19546006917E+03  0.19546006917E+03  0.00000000000E+00 0. -1.
         21   -1    0    0  502  503 -0.00000000000E+00 -0.00000000000E+00 -0.61459381023E+03  0.61459381023E+03  0.00000000000E+00 0.  1.
          6    1    1    2  501    0  0.22460718126E+03  0.16868306230E+03 -0.33377383832E+03  0.46929344394E+03  0.17300000000E+03 0.  1.
         -6    1    1    2    0  503 -0.22460718126E+03 -0.16868306230E+03 -0.85359902747E+02  0.34076043546E+03  0.17300000000E+03 0. -1.
<mgrwt>
<rscale>  2 0.32989599E+03</rscale>
<asrwt>0</asrwt>
<pdfrwt beam="1">  1       21 0.30070780E-01 0.32989599E+03</pdfrwt>
<pdfrwt beam="2">  1       21 0.94552894E-01 0.32989599E+03</pdfrwt>
<totfact> 0.92126316E+03</totfact>
</mgrwt>
</event>
<event>
 4    1  0.4263413E+000  0.3962180E+03  0.7546771E-02  0.1045097E+00
         21   -1    0    0  503  502  0.00000000000E+00  0.00000000000E+00  0.31807565363E+03  0.31807565363E+03  0.00000000000E+00 0. -1.
         21   -1    0    0  501  503 -0.00000000000E+00 -0.00000000000E+00 -0.51023407504E+03  0.51023407504E+03  0.00000000000E+00 0.  1.
          6    1    1    2  501    0 -0.35023870168E+03  0.66276547953E+02 -0.17095254753E+03  0.43152462556E+03  0.17300000000E+03 0.  1.
         -6    1    1    2    0  502  0.35023870168E+03 -0.66276547953E+02 -0.21205873882E+02  0.39678510311E+03  0.17300000000E+03 0. -1.
<mgrwt>
<rscale>  2 0.39621803E+03</rscale>
<asrwt>0</asrwt>
<pdfrwt beam="1">  1       21 0.48934716E-01 0.39621803E+03</pdfrwt>
<pdfrwt beam="2">  1       21 0.78497549E-01 0.39621803E+03</pdfrwt>
<totfact> 0.51290486E+03</totfact>
</mgrwt>
</event>
<event>
 4    1  0.4263413E+000  0.1840455E+03  0.7546771E-02  0.1163944E+00
         21   -1    0    0  501  502  0.00000000000E+00  0.00000000000E+00  0.43840321366E+03  0.43840321366E+03  0.00000000000E+00 0. -1.
         21   -1    0    0  502  503 -0.00000000000E+00 -0.00000000000E+00 -0.86459183217E+02  0.86459183217E+02  0.00000000000E+00 0. -1.
          6    1    1    2  501    0  0.35323074737E+02  0.51923376566E+02  0.26155583560E+03  0.31981902973E+03  0.17300000000E+03 0. -1.
         -6    1    1    2    0  503 -0.35323074737E+02 -0.51923376566E+02  0.90388194844E+02  0.20504336714E+03  0.17300000000E+03 0. -1.
<mgrwt>
<rscale>  2 0.18404553E+03</rscale>
<asrwt>0</asrwt>
<pdfrwt beam="1">  1       21 0.67446647E-01 0.18404553E+03</pdfrwt>
<pdfrwt beam="2">  1       21 0.13301413E-01 0.18404553E+03</pdfrwt>
<totfact> 0.98390399E+04</totfact>
</mgrwt>
</event>
<event>
 4    1  0.4263413E+000  0.2617737E+03  0.7546771E-02  0.1106082E+00
         21   -1    0    0  503  502  0.00000000000E+00  0.00000000000E+00  0.73612695061E+02  0.73612695061E+02  0.00000000000E+00 0. -1.
         21   -1    0    0  501  503 -0.00000000000E+00 -0.00000000000E+00 -0.11459697315E+04  0.11459697315E+04  0.00000000000E+00 0.  1.
          6    1    1    2  501    0 -0.19623257160E+03 -0.94474129729E+01 -0.80035382390E+03  0.84207583934E+03  0.17300000000E+03 0.  1.
         -6    1    1    2    0  502  0.19623257160E+03  0.94474129729E+01 -0.27200321256E+03  0.37750658725E+03  0.17300000000E+03 0. -1.
<mgrwt>
<rscale>  2 0.26177371E+03</rscale>
<asrwt>0</asrwt>
<pdfrwt beam="1">  1       21 0.11325031E-01 0.26177371E+03</pdfrwt>
<pdfrwt beam="2">  1       21 0.17630303E+00 0.26177371E+03</pdfrwt>
<totfact> 0.11972704E+04</totfact>
</mgrwt>
</event>
<event>
 4    1  0.4263413E+000  0.2764331E+03  0.7546771E-02  0.1097653E+00
         21   -1    0    0  503  502  0.00000000000E+00  0.00000000000E+00  0.25922397125E+03  0.25922397125E+03  0.00000000000E+00 0.  1.
         21   -1    0    0  501  503 -0.00000000000E+00 -0.00000000000E+00 -0.34644503447E+03  0.34644503447E+03  0.00000000000E+00 0.  1.
          6    1    1    2  501    0  0.36665026983E+02  0.21246635303E+03 -0.16055146364E+03  0.31967490963E+03  0.17300000000E+03 0.  1.
         -6    1    1    2    0  502 -0.36665026983E+02 -0.21246635303E+03  0.73330400408E+02  0.28599409609E+03  0.17300000000E+03 0.  1.
<mgrwt>
<rscale>  2 0.27643313E+03</rscale>
<asrwt>0</asrwt>
<pdfrwt beam="1">  1       21 0.39880611E-01 0.27643313E+03</pdfrwt>
<pdfrwt beam="2">  1       21 0.53299236E-01 0.27643313E+03</pdfrwt>
<totfact> 0.19337218E+04</totfact>
</mgrwt>
</event>
<event>
 4    1  0.4263413E+000  0.1838772E+03  0.7546771E-02  0.1164103E+00
         21   -1    0    0  503  502  0.00000000000E+00  0.00000000000E+00  0.36820860007E+03  0.36820860007E+03  0.00000000000E+00 0.  1.
         21   -1    0    0  501  503 -0.00000000000E+00 -0.00000000000E+00 -0.91831920691E+02  0.91831920691E+02  0.00000000000E+00 0.  1.
          6    1    1    2  501    0  0.36154862891E+02  0.50740946522E+02  0.13621635973E+03  0.22883556197E+03  0.17300000000E+03 0.  1.
         -6    1    1    2    0  502 -0.36154862891E+02 -0.50740946522E+02  0.14016031965E+03  0.23120495879E+03  0.17300000000E+03 0.  1.
<mgrwt>
<rscale>  2 0.18387718E+03</rscale>
<asrwt>0</asrwt>
<pdfrwt beam="1">  1       21 0.56647476E-01 0.18387718E+03</pdfrwt>
<pdfrwt beam="2">  1       21 0.14127988E-01 0.18387718E+03</pdfrwt>
<totfact> 0.12853824E+05</totfact>
</mgrwt>
</event>
<event>
 4    1  0.4263413E+000  0.1762928E+03  0.7546771E-02  0.1171440E+00
         21   -1    0    0  501  502  0.00000000000E+00  0.00000000000E+00  0.59577331876E+02  0.59577331876E+02  0.00000000000E+00 0.  1.
         21   -1    0    0  502  503 -0.00000000000E+00 -0.00000000000E+00 -0.69069681694E+03  0.69069681694E+03  0.00000000000E+00 0.  1.
          6    1    1    2  501    0  0.12760759798E+02  0.31421747001E+02 -0.12997776989E+03  0.21902827178E+03  0.17300000000E+03 0.  1.
         -6    1    1    2    0  503 -0.12760759798E+02 -0.31421747001E+02 -0.50114171518E+03  0.53124587703E+03  0.17300000000E+03 0.  1.
<mgrwt>
<rscale>  2 0.17629283E+03</rscale>
<asrwt>0</asrwt>
<pdfrwt beam="1">  1       21 0.91657437E-02 0.17629283E+03</pdfrwt>
<pdfrwt beam="2">  1       21 0.10626104E+00 0.17629283E+03</pdfrwt>
<totfact> 0.67681647E+04</totfact>
</mgrwt>
</event>
<event>
 4    1  0.4263413E+000  0.2431400E+03  0.7546771E-02  0.1117719E+00
         21   -1    0    0  501  502  0.00000000000E+00  0.00000000000E+00  0.41441979896E+03  0.41441979896E+03  0.00000000000E+00 0. -1.
         21   -1    0    0  502  503 -0.00000000000E+00 -0.00000000000E+00 -0.15471670623E+03  0.15471670623E+03  0.00000000000E+00 0. -1.
          6    1    1    2  501    0 -0.46106499154E+02 -0.16450601038E+03  0.20932277665E+03  0.32083182750E+03  0.17300000000E+03 0. -1.
         -6    1    1    2    0  503  0.46106499154E+02  0.16450601038E+03  0.50380316076E+02  0.24830467769E+03  0.17300000000E+03 0. -1.
<mgrwt>
<rscale>  2 0.24313995E+03</rscale>
<asrwt>0</asrwt>
<pdfrwt beam="1">  1       21 0.63756892E-01 0.24313995E+03</pdfrwt>
<pdfrwt beam="2">  1       21 0.23802570E-01 0.24313995E+03</pdfrwt>
<totfact> 0.36879400E+04</totfact>
</mgrwt>
</event>
<event>
 4    1  0.4263413E+000  0.2353531E+03  0.7546771E-02  0.1122928E+00
         21   -1    0    0  501  502  0.00000000000E+00  0.00000000000E+00  0.13318185538E+03  0.13318185538E+03  0.00000000000E+00 0.  1.
         21   -1    0    0  502  503 -0.00000000000E+00 -0.00000000000E+00 -0.47710156981E+03  0.47710156981E+03  0.00000000000E+00 0. -1.
          6    1    1    2  501    0  0.13564339636E+03 -0.84041393492E+02 -0.28124405592E+03  0.36672783612E+03  0.17300000000E+03 0.  1.
         -6    1    1    2    0  503 -0.13564339636E+03  0.84041393492E+02 -0.62675658517E+02  0.24355558907E+03  0.17300000000E+03 0.  1.
<mgrwt>
<rscale>  2 0.23535311E+03</rscale>
<asrwt>0</asrwt>
<pdfrwt beam="1">  1       21 0.20489516E-01 0.23535311E+03</pdfrwt>
<pdfrwt beam="2">  1       21 0.73400241E-01 0.23535311E+03</pdfrwt>
<totfact> 0.36021966E+04</totfact>
</mgrwt>
</event>
<event>
 4    1  0.4263413E+000  0.1953141E+03  0.7546771E-02  0.1153754E+00
         21   -1    0    0  503  502  0.00000000000E+00  0.00000000000E+00  0.25993702956E+02  0.25993702956E+02  0.00000000000E+00 0.  1.
         21   -1    0    0  501  503 -0.00000000000E+00 -0.00000000000E+00 -0.14937924783E+04  0.14937924783E+04  0.00000000000E+00 0.  1.
          6    1    1    2  501    0 -0.63441248132E+02  0.64759616554E+02 -0.83457805490E+03  0.85712783739E+03  0.17300000000E+03 0.  1.
         -6    1    1    2    0  502  0.63441248132E+02 -0.64759616554E+02 -0.63322072045E+03  0.66265834387E+03  0.17300000000E+03 0.  1.
<mgrwt>
<rscale>  2 0.19531411E+03</rscale>
<asrwt>0</asrwt>
<pdfrwt beam="1">  1       21 0.39990307E-02 0.19531411E+03</pdfrwt>
<pdfrwt beam="2">  1       21 0.22981426E+00 0.19531411E+03</pdfrwt>
<totfact> 0.34301997E+04</totfact>
</mgrwt>
</event>
<event>
 4    1  0.4263413E+000  0.1888021E+03  0.7546771E-02  0.1159546E+00
         21   -1    0    0  503  502  0.00000000000E+00  0.00000000000E+00  0.67803549878E+02  0.67803549878E+02  0.00000000000E+00 0.  1.
         21   -1    0    0  501  503 -0.00000000000E+00 -0.00000000000E+00 -0.58871592470E+03  0.58871592470E+03  0.00000000000E+00 0.  1.
          6    1    1    2  501    0  0.15439952290E+02  0.74019228422E+02 -0.36782859282E+03  0.41345388134E+03  0.17300000000E+03 0.  1.
         -6    1    1    2    0  502 -0.15439952290E+02 -0.74019228422E+02 -0.15308378201E+03  0.24306559324E+03  0.17300000000E+03 0.  1.
<mgrwt>
<rscale>  2 0.18880211E+03</rscale>
<asrwt>0</asrwt>
<pdfrwt beam="1">  1       21 0.10431316E-01 0.18880211E+03</pdfrwt>
<pdfrwt beam="2">  1       21 0.90571679E-01 0.18880211E+03</pdfrwt>
<totfact> 0.78092155E+04</totfact>
</mgrwt>
</event>
<event>
 4    1  0.4263413E+000  0.2443269E+03  0.7546771E-02  0.1116944E+00
         21   -1    0    0  503  502  0.00000000000E+00  0.00000000000E+00  0.19261771797E+03  0.19261771797E+03  0.00000000000E+00 0. -1.
         21   -1    0    0  501  503 -0.00000000000E+00 -0.00000000000E+00 -0.31240009620E+03  0.31240009620E+03  0.00000000000E+00 0.  1.
          6    1    1    2  501    0 -0.75780544914E+02 -0.15499651372E+03 -0.82400916735E+02  0.25784786470E+03  0.17300000000E+03 0.  1.
         -6    1    1    2    0  502  0.75780544914E+02  0.15499651372E+03 -0.37381461504E+02  0.24716994946E+03  0.17300000000E+03 0. -1.
<mgrwt>
<rscale>  2 0.24432685E+03</rscale>
<asrwt>0</asrwt>
<pdfrwt beam="1">  1       21 0.29633495E-01 0.24432685E+03</pdfrwt>
<pdfrwt beam="2">  1       21 0.48061553E-01 0.24432685E+03</pdfrwt>
<totfact> 0.44082404E+04</totfact>
</mgrwt>
</event>
<event>
 4    1  0.4263413E+000  0.2405323E+03  0.7546771E-02  0.1119439E+00
         21   -1    0    0  503  502  0.00000000000E+00  0.00000000000E+00  0.16302636345E+04  0.16302636345E+04  0.00000000000E+00 0. -1.
         21   -1    0    0  501  503 -0.00000000000E+00 -0.00000000000E+00 -0.38281408245E+02  0.38281408245E+02  0.00000000000E+00 0. -1.
          6    1    1    2  501    0  0.50764869502E+02 -0.15921591111E+03  0.57065316260E+03  0.61927442246E+03  0.17300000000E+03 0. -1.
         -6    1    1    2    0  502 -0.50764869502E+02  0.15921591111E+03  0.10213290636E+04  0.10492706202E+04  0.17300000000E+03 0. -1.
<mgrwt>
<rscale>  2 0.24053228E+03</rscale>
<asrwt>0</asrwt>
<pdfrwt beam="1">  1       21 0.25080974E+00 0.24053228E+03</pdfrwt>
<pdfrwt beam="2">  1       21 0.58894487E-02 0.24053228E+03</pdfrwt>
<totfact> 0.12855314E+04</totfact>
</mgrwt>
</event>
<event>
 4    1  0.4263413E+000  0.1847348E+03  0.7546771E-02  0.1163298E+00
         21   -1    0    0  503  502  0.00000000000E+00  0.00000000000E+00  0.29685233981E+03  0.29685233981E+03  0.00000000000E+00 0. -1.
         21   -1    0    0  501  503 -0.00000000000E+00 -0.00000000000E+00 -0.11521673332E+03  0.11521673332E+03  0.00000000000E+00 0. -1.
          6    1    1    2  501    0 -0.64496514199E+02 -0.61771186989E+01  0.81144007651E+02  0.20177043172E+03  0.17300000000E+03 0. -1.
         -6    1    1    2    0  502  0.64496514199E+02  0.61771186989E+01  0.10049159884E+03  0.21029864141E+03  0.17300000000E+03 0. -1.
<mgrwt>
<rscale>  2 0.18473483E+03</rscale>
<asrwt>0</asrwt>
<pdfrwt beam="1">  1       21 0.45669590E-01 0.18473483E+03</pdfrwt>
<pdfrwt beam="2">  1       21 0.17725651E-01 0.18473483E+03</pdfrwt>
<totfact> 0.13313320E+05</totfact>
</mgrwt>
</event>
<event>
 4    1  0.4263413E+000  0.1754527E+03  0.7546771E-02  0.1172278E+00
         21   -1    0    0  503  502  0.00000000000E+00  0.00000000000E+00  0.11046591587E+03  0.11046591587E+03  0.00000000000E+00 0. -1.
         21   -1    0    0  501  503 -0.00000000000E+00 -0.00000000000E+00 -0.38575111115E+03  0.38575111115E+03  0.00000000000E+00 0. -1.
          6    1    1    2  501    0  0.25657800846E+02 -0.14011191294E+02 -0.69224039222E+01  0.17558916795E+03  0.17300000000E+03 0. -1.
         -6    1    1    2    0  502 -0.25657800846E+02  0.14011191294E+02 -0.26836279136E+03  0.32062785907E+03  0.17300000000E+03 0. -1.
<mgrwt>
<rscale>  2 0.17545266E+03</rscale>
<asrwt>0</asrwt>
<pdfrwt beam="1">  1       21 0.16994756E-01 0.17545266E+03</pdfrwt>
<pdfrwt beam="2">  1       21 0.59346325E-01 0.17545266E+03</pdfrwt>
<totfact> 0.83392963E+04</totfact>
</mgrwt>
</event>
<event>
 4    1  0.4263413E+000  0.2147224E+03  0.7546771E-02  0.1137880E+00
         21   -1    0    0  503  502  0.00000000000E+00  0.00000000000E+00  0.53940403605E+03  0.53940403605E+03  0.00000000000E+00 0. -1.
         21   -1    0    0  501  503 -0.00000000000E+00 -0.00000000000E+00 -0.98542705005E+02  0.98542705005E+02  0.00000000000E+00 0.  1.
          6    1    1    2  501    0  0.84065707083E+02 -0.95444567825E+02  0.10427583667E+03  0.23870307654E+03  0.17300000000E+03 0.  1.
         -6    1    1    2    0  502 -0.84065707083E+02  0.95444567825E+02  0.33658549438E+03  0.39924366452E+03  0.17300000000E+03 0. -1.
<mgrwt>
<rscale>  2 0.21472240E+03</rscale>
<asrwt>0</asrwt>
<pdfrwt beam="1">  1       21 0.82985235E-01 0.21472240E+03</pdfrwt>
<pdfrwt beam="2">  1       21 0.15160416E-01 0.21472240E+03</pdfrwt>
<totfact> 0.48167231E+04</totfact>
</mgrwt>
</event>
<event>
 4    1  0.4263413E+000  0.1915414E+03  0.7546771E-02  0.1157078E+00
         21   -1    0    0  503  502  0.00000000000E+00  0.00000000000E+00  0.47080285414E+03  0.47080285414E+03  0.00000000000E+00 0. -1.
         21   -1    0    0  501  503 -0.00000000000E+00 -0.00000000000E+00 -0.12638445415E+03  0.12638445415E+03  0.00000000000E+00 0. -1.
          6    1    1    2  501    0  0.13010289021E+02  0.81177785441E+02 -0.12681685897E+02  0.19196073981E+03  0.17300000000E+03 0. -1.
         -6    1    1    2    0  502 -0.13010289021E+02 -0.81177785441E+02  0.35710008588E+03  0.40522656848E+03  0.17300000000E+03 0. -1.
<mgrwt>
<rscale>  2 0.19154138E+03</rscale>
<asrwt>0</asrwt>
<pdfrwt beam="1">  1       21 0.72431207E-01 0.19154138E+03</pdfrwt>
<pdfrwt beam="2">  1       21 0.19443762E-01 0.19154138E+03</pdfrwt>
<totfact> 0.41827938E+04</totfact>
</mgrwt>
</event>
<event>
 4    1  0.4263413E+000  0.2003185E+03  0.7546771E-02  0.1149471E+00
         21   -1    0    0  503  502  0.00000000000E+00  0.00000000000E+00  0.66376979877E+02  0.66376979877E+02  0.00000000000E+00 0.  1.
         21   -1    0    0  501  503 -0.00000000000E+00 -0.00000000000E+00 -0.11434022194E+04  0.11434022194E+04  0.00000000000E+00 0.  1.
          6    1    1    2  501    0 -0.55664811127E+02  0.84261120249E+02 -0.95376837758E+03  0.97457766527E+03  0.17300000000E+03 0.  1.
         -6    1    1    2    0  502  0.55664811127E+02 -0.84261120249E+02 -0.12325686196E+03  0.23520153401E+03  0.17300000000E+03 0.  1.
<mgrwt>
<rscale>  2 0.20031852E+03</rscale>
<asrwt>0</asrwt>
<pdfrwt beam="1">  1       21 0.10211844E-01 0.20031852E+03</pdfrwt>
<pdfrwt beam="2">  1       21 0.17590802E+00 0.20031852E+03</pdfrwt>
<totfact> 0.15090237E+04</totfact>
</mgrwt>
</event>
<event>
 4    1  0.4263413E+000  0.1762624E+03  0.7546771E-02  0.1171470E+00
         21   -1    0    0  503  502  0.00000000000E+00  0.00000000000E+00  0.54601038955E+03  0.54601038955E+03  0.00000000000E+00 0.  1.
         21   -1    0    0  501  503 -0.00000000000E+00 -0.00000000000E+00 -0.30096522839E+03  0.30096522839E+03  0.00000000000E+00 0.  1.
          6    1    1    2  501    0  0.13168780801E+02 -0.31080811961E+02 -0.25883728472E+03  0.31315359430E+03  0.17300000000E+03 0.  1.
         -6    1    1    2    0  502 -0.13168780801E+02  0.31080811961E+02  0.50388244588E+03  0.53382202364E+03  0.17300000000E+03 0.  1.
<mgrwt>
<rscale>  2 0.17626240E+03</rscale>
<asrwt>0</asrwt>
<pdfrwt beam="1">  1       21 0.84001598E-01 0.17626240E+03</pdfrwt>
<pdfrwt beam="2">  1       21 0.46302343E-01 0.17626240E+03</pdfrwt>
<totfact> 0.55724439E+03</totfact>
</mgrwt>
</event>
<event>
 4    1  0.4263413E+000  0.2019118E+03  0.7546771E-02  0.1148136E+00
         21   -1    0    0  501  502  0.00000000000E+00  0.00000000000E+00  0.25318476720E+03  0.25318476720E+03  0.00000000000E+00 0. -1.
         21   -1    0    0  502  503 -0.00000000000E+00 -0.00000000000E+00 -0.44395415280E+03  0.44395415280E+03  0.00000000000E+00 0. -1.
          6    1    1    2  501    0  0.59850846841E+01  0.10394012204E+03  0.18288202454E+03  0.27242284248E+03  0.17300000000E+03 0. -1.
         -6    1    1    2    0  503 -0.59850846841E+01 -0.10394012204E+03 -0.37365141013E+03  0.42471607752E+03  0.17300000000E+03 0. -1.
<mgrwt>
<rscale>  2 0.20191179E+03</rscale>
<asrwt>0</asrwt>
<pdfrwt beam="1">  1       21 0.38951503E-01 0.20191179E+03</pdfrwt>
<pdfrwt beam="2">  1       21 0.68300638E-01 0.20191179E+03</pdfrwt>
<totfact> 0.12353041E+04</totfact>
</mgrwt>
</event>
<event>
 4    1  0.4263413E+000  0.1952217E+03  0.7546771E-02  0.1153834E+00
         21   -1    0    0  503  502  0.00000000000E+00  0.00000000000E+00  0.54433951865E+03  0.54433951865E+03  0.00000000000E+00 0. -1.
         21   -1    0    0  501  503 -0.00000000000E+00 -0.00000000000E+00 -0.90078006807E+02  0.90078006807E+02  0.00000000000E+00 0.  1.
          6    1    1    2  501    0 -0.25393450186E+02  0.86819787391E+02  0.77423681241E+02  0.21001411670E+03  0.17300000000E+03 0.  1.
         -6    1    1    2    0  502  0.25393450186E+02 -0.86819787391E+02  0.37683783060E+03  0.42440340876E+03  0.17300000000E+03 0. -1.
<mgrwt>
<rscale>  2 0.19522168E+03</rscale>
<asrwt>0</asrwt>
<pdfrwt beam="1">  1       21 0.83744539E-01 0.19522168E+03</pdfrwt>
<pdfrwt beam="2">  1       21 0.13858155E-01 0.19522168E+03</pdfrwt>
<totfact> 0.56078778E+04</totfact>
</mgrwt>
</event>
<event>
 4    1  0.4263413E+000  0.1851348E+03  0.7546771E-02  0.1162924E+00
         21   -1    0    0  503  502  0.00000000000E+00  0.00000000000E+00  0.44946130497E+02  0.44946130497E+02  0.00000000000E+00 0.  1.
         21   -1    0    0  501  503 -0.00000000000E+00 -0.00000000000E+00 -0.79366019684E+03  0.79366019684E+03  0.00000000000E+00 0.  1.
          6    1    1    2  501    0  0.41017607942E+02  0.51608575667E+02 -0.45733696507E+03  0.49338827394E+03  0.17300000000E+03 0.  1.
         -6    1    1    2    0  502 -0.41017607942E+02 -0.51608575667E+02 -0.29137710128E+03  0.34521805340E+03  0.17300000000E+03 0.  1.
<mgrwt>
<rscale>  2 0.18513479E+03</rscale>
<asrwt>0</asrwt>
<pdfrwt beam="1">  1       21 0.69147896E-02 0.18513479E+03</pdfrwt>
<pdfrwt beam="2">  1       21 0.12210156E+00 0.18513479E+03</pdfrwt>
<totfact> 0.78417562E+04</totfact>
</mgrwt>
</event>
<event>
 4    1  0.4263413E+000  0.1985010E+03  0.7546771E-02  0.1151010E+00
         21   -1    0    0  501  502  0.00000000000E+00  0.00000000000E+00  0.37206705700E+03  0.37206705700E+03  0.00000000000E+00 0. -1.
         21   -1    0    0  502  503 -0.00000000000E+00 -0.00000000000E+00 -0.22396329512E+03  0.22396329512E+03  0.00000000000E+00 0. -1.
          6    1    1    2  501    0  0.92731110830E+02 -0.29573766705E+02  0.29042515835E+03  0.35178038489E+03  0.17300000000E+03 0. -1.
         -6    1    1    2    0  503 -0.92731110830E+02  0.29573766705E+02 -0.14232139647E+03  0.24424996722E+03  0.17300000000E+03 0. -1.
<mgrwt>
<rscale>  2 0.19850105E+03</rscale>
<asrwt>0</asrwt>
<pdfrwt beam="1">  1       21 0.57241086E-01 0.19850105E+03</pdfrwt>
<pdfrwt beam="2">  1       21 0.34455892E-01 0.19850105E+03</pdfrwt>
<totfact> 0.23183545E+04</totfact>
</mgrwt>
</event>
<event>
 4    1  0.4263413E+000  0.1949230E+03  0.7546771E-02  0.1154095E+00
         21   -1    0    0  501  502  0.00000000000E+00  0.00000000000E+00  0.21463028127E+03  0.21463028127E+03  0.00000000000E+00 0.  1.
         21   -1    0    0  502  503 -0.00000000000E+00 -0.00000000000E+00 -0.17710165024E+03  0.17710165024E+03  0.00000000000E+00 0. -1.
          6    1    1    2  501    0 -0.56503495195E+02  0.69809344742E+02  0.14697471604E+02  0.19547635472E+03  0.17300000000E+03 0. -1.
         -6    1    1    2    0  503  0.56503495195E+02 -0.69809344742E+02  0.22831159429E+02  0.19625557680E+03  0.17300000000E+03 0.  1.
<mgrwt>
<rscale>  2 0.19492304E+03</rscale>
<asrwt>0</asrwt>
<pdfrwt beam="1">  1       21 0.33020043E-01 0.19492304E+03</pdfrwt>
<pdfrwt beam="2">  1       21 0.27246408E-01 0.19492304E+03</pdfrwt>
<totfact> 0.11330665E+05</totfact>
</mgrwt>
</event>
<event>
 4    1  0.4263413E+000  0.2360177E+03  0.7546771E-02  0.1122475E+00
         21   -1    0    0  503  502  0.00000000000E+00  0.00000000000E+00  0.14201867487E+03  0.14201867487E+03  0.00000000000E+00 0. -1.
         21   -1    0    0  501  503 -0.00000000000E+00 -0.00000000000E+00 -0.44633556561E+03  0.44633556561E+03  0.00000000000E+00 0. -1.
          6    1    1    2  501    0 -0.68139588851E+01 -0.16040235094E+03 -0.25457943307E+03  0.34715275019E+03  0.17300000000E+03 0. -1.
         -6    1    1    2    0  502  0.68139588851E+01  0.16040235094E+03 -0.49737457680E+02  0.24120149029E+03  0.17300000000E+03 0. -1.
<mgrwt>
<rscale>  2 0.23601768E+03</rscale>
<asrwt>0</asrwt>
<pdfrwt beam="1">  1       21 0.21849027E-01 0.23601768E+03</pdfrwt>
<pdfrwt beam="2">  1       21 0.68667009E-01 0.23601768E+03</pdfrwt>
<totfact> 0.36993572E+04</totfact>
</mgrwt>
</event>
<event>
 4    1  0.4263413E+000  0.2394926E+03  0.7546771E-02  0.1120131E+00
         21   -1    0    0  503  502  0.00000000000E+00  0.00000000000E+00  0.17709660721E+03  0.17709660721E+03  0.00000000000E+00 0.  1.
         21   -1    0    0  501  503 -0.00000000000E+00 -0.00000000000E+00 -0.32930269159E+03  0.32930269159E+03  0.00000000000E+00 0. -1.
          6    1    1    2  501    0 -0.52243478087E+02  0.15715704552E+03 -0.43588794889E+02  0.24342699316E+03  0.17300000000E+03 0.  1.
         -6    1    1    2    0  502  0.52243478087E+02 -0.15715704552E+03 -0.10861728950E+03  0.26297230564E+03  0.17300000000E+03 0. -1.
<mgrwt>
<rscale>  2 0.23949263E+03</rscale>
<asrwt>0</asrwt>
<pdfrwt beam="1">  1       21 0.27245632E-01 0.23949263E+03</pdfrwt>
<pdfrwt beam="2">  1       21 0.50661952E-01 0.23949263E+03</pdfrwt>
<totfact> 0.46591696E+04</totfact>
</mgrwt>
</event>
<event>
 4    1  0.4263413E+000  0.2143768E+03  0.7546771E-02  0.1138146E+00
         21   -1    0    0  501  502  0.00000000000E+00  0.00000000000E+00  0.42531952104E+03  0.42531952104E+03  0.00000000000E+00 0. -1.
         21   -1    0    0  502  503 -0.00000000000E+00 -0.00000000000E+00 -0.12624572106E+03  0.12624572106E+03  0.00000000000E+00 0.  1.
          6    1    1    2  501    0 -0.29414748704E+02  0.12313882033E+03  0.44848714411E+02  0.21901781593E+03  0.17300000000E+03 0.  1.
         -6    1    1    2    0  503  0.29414748704E+02 -0.12313882033E+03  0.25422508557E+03  0.33254742616E+03  0.17300000000E+03 0.  1.
<mgrwt>
<rscale>  2 0.21437676E+03</rscale>
<asrwt>0</asrwt>
<pdfrwt beam="1">  1       21 0.65433772E-01 0.21437676E+03</pdfrwt>
<pdfrwt beam="2">  1       21 0.19422419E-01 0.21437676E+03</pdfrwt>
<totfact> 0.51828549E+04</totfact>
</mgrwt>
</event>
<event>
 4    1  0.4263413E+000  0.3338779E+03  0.7546771E-02  0.1069434E+00
         21   -1    0    0  503  502  0.00000000000E+00  0.00000000000E+00  0.14624838696E+03  0.14624838696E+03  0.00000000000E+00 0. -1.
         21   -1    0    0  501  503 -0.00000000000E+00 -0.00000000000E+00 -0.76739735566E+03  0.76739735566E+03  0.00000000000E+00 0.  1.
          6    1    1    2  501    0  0.28086913092E+03  0.51555821548E+02 -0.34807154889E+03  0.48231553425E+03  0.17300000000E+03 0.  1.
         -6    1    1    2    0  502 -0.28086913092E+03 -0.51555821548E+02 -0.27307741981E+03  0.43133020836E+03  0.17300000000E+03 0. -1.
<mgrwt>
<rscale>  2 0.33387793E+03</rscale>
<asrwt>0</asrwt>
<pdfrwt beam="1">  1       21 0.22499752E-01 0.33387793E+03</pdfrwt>
<pdfrwt beam="2">  1       21 0.11806113E+00 0.33387793E+03</pdfrwt>
<totfact> 0.94011388E+03</totfact>
</mgrwt>
</event>
<event>
 4    1  0.4263413E+000  0.2067277E+03  0.7546771E-02  0.1144184E+00
         21   -1    0    0  503  502  0.00000000000E+00  0.00000000000E+00  0.23668246108E+03  0.23668246108E+03  0.00000000000E+00 0. -1.
         21   -1    0    0  501  503 -0.00000000000E+00 -0.00000000000E+00 -0.68497842789E+03  0.68497842789E+03  0.00000000000E+00 0.  1.
          6    1    1    2  501    0  0.10508720333E+03  0.42000166694E+02 -0.61960242828E+03  0.65317953385E+03  0.17300000000E+03 0.  1.
         -6    1    1    2    0  502 -0.10508720333E+03 -0.42000166694E+02  0.17130646147E+03  0.26848135512E+03  0.17300000000E+03 0. -1.
<mgrwt>
<rscale>  2 0.20672768E+03</rscale>
<asrwt>0</asrwt>
<pdfrwt beam="1">  1       21 0.36412687E-01 0.20672768E+03</pdfrwt>
<pdfrwt beam="2">  1       21 0.10538130E+00 0.20672768E+03</pdfrwt>
<totfact> 0.52103220E+03</totfact>
</mgrwt>
</event>
<event>
 4    1  0.4263413E+000  0.1764765E+03  0.7546771E-02  0.1171257E+00
         21   -1    0    0  501  502  0.00000000000E+00  0.00000000000E+00  0.35946714146E+03  0.35946714146E+03  0.00000000000E+00 0.  1.
         21   -1    0    0  502  503 -0.00000000000E+00 -0.00000000000E+00 -0.43582983800E+03  0.43582983800E+03  0.00000000000E+00 0.  1.
          6    1    1    2  501    0  0.11098714576E+02  0.33042093349E+02  0.31775482405E+03  0.36347226800E+03  0.17300000000E+03 0.  1.
         -6    1    1    2    0  503 -0.11098714576E+02 -0.33042093349E+02 -0.39411752059E+03  0.43182471147E+03  0.17300000000E+03 0.  1.
<mgrwt>
<rscale>  2 0.17647652E+03</rscale>
<asrwt>0</asrwt>
<pdfrwt beam="1">  1       21 0.55302638E-01 0.17647652E+03</pdfrwt>
<pdfrwt beam="2">  1       21 0.67050744E-01 0.17647652E+03</pdfrwt>
<totfact> 0.63574585E+03</totfact>
</mgrwt>
</event>
<event>
 4    1  0.4263413E+000  0.2234613E+03  0.7546771E-02  0.1131329E+00
         21   -1    0    0  501  502  0.00000000000E+00  0.00000000000E+00  0.60007281554E+03  0.60007281554E+03  0.00000000000E+00 0.  1.
         21   -1    0    0  502  503 -0.00000000000E+00 -0.00000000000E+00 -0.54222548689E+03  0.54222548689E+03  0.00000000000E+00 0.  1.
          6    1    1    2  501    0 -0.54785697918E+02 -0.13040119724E+03  0.55442154171E+03  0.59776098138E+03  0.17300000000E+03 0.  1.
         -6    1    1    2    0  503  0.54785697918E+02  0.13040119724E+03 -0.49657421306E+03  0.54453732105E+03  0.17300000000E+03 0.  1.
<mgrwt>
<rscale>  2 0.22346128E+03</rscale>
<asrwt>0</asrwt>
<pdfrwt beam="1">  1       21 0.92318895E-01 0.22346128E+03</pdfrwt>
<pdfrwt beam="2">  1       21 0.83419305E-01 0.22346128E+03</pdfrwt>
<totfact> 0.12036626E+03</totfact>
</mgrwt>
</event>
<event>
 4    1  0.4263413E+000  0.1895593E+03  0.7546771E-02  0.1158859E+00
         21   -1    0    0  501  502  0.00000000000E+00  0.00000000000E+00  0.32824087832E+03  0.32824087832E+03  0.00000000000E+00 0.  1.
         21   -1    0    0  502  503 -0.00000000000E+00 -0.00000000000E+00 -0.11368704416E+03  0.11368704416E+03  0.00000000000E+00 0.  1.
          6    1    1    2  501    0  0.25453323703E+02 -0.73183781843E+02  0.14983061413E+03  0.24162357199E+03  0.17300000000E+03 0.  1.
         -6    1    1    2    0  503 -0.25453323703E+02  0.73183781843E+02  0.64723220032E+02  0.20030435049E+03  0.17300000000E+03 0.  1.
<mgrwt>
<rscale>  2 0.18955932E+03</rscale>
<asrwt>0</asrwt>
<pdfrwt beam="1">  1       21 0.50498596E-01 0.18955932E+03</pdfrwt>
<pdfrwt beam="2">  1       21 0.17490315E-01 0.18955932E+03</pdfrwt>
<totfact> 0.11062347E+05</totfact>
</mgrwt>
</event>
<event>
 4    1  0.4263413E+000  0.2008103E+03  0.7546771E-02  0.1149057E+00
         21   -1    0    0  503  502  0.00000000000E+00  0.00000000000E+00  0.36953025641E+03  0.36953025641E+03  0.00000000000E+00 0.  1.
         21   -1    0    0  501  503 -0.00000000000E+00 -0.00000000000E+00 -0.11498303202E+03  0.11498303202E+03  0.00000000000E+00 0. -1.
          6    1    1    2  501    0  0.12740868359E+02  0.10116044172E+03  0.18195722655E+03  0.27098560292E+03  0.17300000000E+03 0.  1.
         -6    1    1    2    0  502 -0.12740868359E+02 -0.10116044172E+03  0.72589997839E+02  0.21352768552E+03  0.17300000000E+03 0. -1.
<mgrwt>
<rscale>  2 0.20081027E+03</rscale>
<asrwt>0</asrwt>
<pdfrwt beam="1">  1       21 0.56850808E-01 0.20081027E+03</pdfrwt>
<pdfrwt beam="2">  1       21 0.17689697E-01 0.20081027E+03</pdfrwt>
<totfact> 0.84007236E+04</totfact>
</mgrwt>
</event>
<event>
 4    1  0.4263413E+000  0.1987951E+03  0.7546771E-02  0.1150760E+00
         21   -1    0    0  503  502  0.00000000000E+00  0.00000000000E+00  0.27781420544E+03  0.27781420544E+03  0.00000000000E+00 0.  1.
         21   -1    0    0  501  503 -0.00000000000E+00 -0.00000000000E+00 -0.16065395161E+03  0.16065395161E+03  0.00000000000E+00 0.  1.
          6    1    1    2  501    0 -0.94397419333E+02  0.26069421594E+02 -0.15619239392E+02  0.19940774348E+03  0.17300000000E+03 0. -1.
         -6    1    1    2    0  502  0.94397419333E+02 -0.26069421594E+02  0.13277949322E+03  0.23906041357E+03  0.17300000000E+03 0. -1.
<mgrwt>
<rscale>  2 0.19879509E+03</rscale>
<asrwt>0</asrwt>
<pdfrwt beam="1">  1       21 0.42740647E-01 0.19879509E+03</pdfrwt>
<pdfrwt beam="2">  1       21 0.24715993E-01 0.19879509E+03</pdfrwt>
<totfact> 0.81297907E+04</totfact>
</mgrwt>
</event>
<event>
 4    1  0.4263413E+000  0.1907276E+03  0.7546771E-02  0.1157807E+00
         21   -1    0    0  501  502  0.00000000000E+00  0.00000000000E+00  0.52226654190E+02  0.52226654190E+02  0.00000000000E+00 0.  1.
         21   -1    0    0  502  503 -0.00000000000E+00 -0.00000000000E+00 -0.31092995819E+04  0.31092995819E+04  0.00000000000E+00 0. -1.
          6    1    1    2  501    0  0.68872654857E+02 -0.41286682669E+02 -0.13603993316E+03  0.23427312301E+03  0.17300000000E+03 0.  1.
         -6    1    1    2    0  503 -0.68872654857E+02  0.41286682669E+02 -0.29210329945E+04  0.29272531130E+04  0.17300000000E+03 0. -1.
<mgrwt>
<rscale>  2 0.19072764E+03</rscale>
<asrwt>0</asrwt>
<pdfrwt beam="1">  1       21 0.80348699E-02 0.19072764E+03</pdfrwt>
<pdfrwt beam="2">  1       21 0.47835378E+00 0.19072764E+03</pdfrwt>
<totfact> 0.32002023E+02</totfact>
</mgrwt>
</event>
<event>
 4    1  0.4263413E+000  0.2260229E+03  0.7546771E-02  0.1129471E+00
         21   -1    0    0  503  502  0.00000000000E+00  0.00000000000E+00  0.13688052131E+03  0.13688052131E+03  0.00000000000E+00 0.  1.
         21   -1    0    0  501  503 -0.00000000000E+00 -0.00000000000E+00 -0.46853422881E+03  0.46853422881E+03  0.00000000000E+00 0.  1.
          6    1    1    2  501    0  0.16154348663E+02  0.14455578141E+03 -0.30235893963E+03  0.37750134476E+03  0.17300000000E+03 0.  1.
         -6    1    1    2    0  502 -0.16154348663E+02 -0.14455578141E+03 -0.29294767868E+02  0.22791340537E+03  0.17300000000E+03 0.  1.
<mgrwt>
<rscale>  2 0.22602287E+03</rscale>
<asrwt>0</asrwt>
<pdfrwt beam="1">  1       21 0.21058542E-01 0.22602287E+03</pdfrwt>
<pdfrwt beam="2">  1       21 0.72082189E-01 0.22602287E+03</pdfrwt>
<totfact> 0.35778858E+04</totfact>
</mgrwt>
</event>
<event>
 4    1  0.4263413E+000  0.3148664E+03  0.7546771E-02  0.1078036E+00
         21   -1    0    0  501  502  0.00000000000E+00  0.00000000000E+00  0.50905999343E+03  0.50905999343E+03  0.00000000000E+00 0.  1.
         21   -1    0    0  502  503 -0.00000000000E+00 -0.00000000000E+00 -0.19515829868E+03  0.19515829868E+03  0.00000000000E+00 0. -1.
          6    1    1    2  501    0  0.26296200726E+03 -0.79268657980E+01  0.14090046126E+03  0.34495476869E+03  0.17300000000E+03 0.  1.
         -6    1    1    2    0  503 -0.26296200726E+03  0.79268657980E+01  0.17300123349E+03  0.35926352341E+03  0.17300000000E+03 0. -1.
<mgrwt>
<rscale>  2 0.31486640E+03</rscale>
<asrwt>0</asrwt>
<pdfrwt beam="1">  1       21 0.78316922E-01 0.31486640E+03</pdfrwt>
<pdfrwt beam="2">  1       21 0.30024354E-01 0.31486640E+03</pdfrwt>
<totfact> 0.14413345E+04</totfact>
</mgrwt>
</event>
<event>
 4    1  0.4263413E+000  0.2508311E+03  0.7546771E-02  0.1112781E+00
         21   -1    0    0  501  502  0.00000000000E+00  0.00000000000E+00  0.24931787748E+03  0.24931787748E+03  0.00000000000E+00 0.  1.
         21   -1    0    0  502  503 -0.00000000000E+00 -0.00000000000E+00 -0.25494272819E+03  0.25494272819E+03  0.00000000000E+00 0. -1.
          6    1    1    2  501    0  0.28944099785E+02 -0.17930277744E+03  0.22596496135E+02  0.25184687520E+03  0.17300000000E+03 0.  1.
         -6    1    1    2    0  503 -0.28944099785E+02  0.17930277744E+03 -0.28221346840E+02  0.25241373047E+03  0.17300000000E+03 0. -1.
<mgrwt>
<rscale>  2 0.25083111E+03</rscale>
<asrwt>0</asrwt>
<pdfrwt beam="1">  1       21 0.38356597E-01 0.25083111E+03</pdfrwt>
<pdfrwt beam="2">  1       21 0.39221958E-01 0.25083111E+03</pdfrwt>
<totfact> 0.39976393E+04</totfact>
</mgrwt>
</event>
<event>
 4    1  0.4263413E+000  0.1759896E+03  0.7546771E-02  0.1171742E+00
         21   -1    0    0  503  502  0.00000000000E+00  0.00000000000E+00  0.33855536948E+02  0.33855536948E+02  0.00000000000E+00 0.  1.
         21   -1    0    0  501  503 -0.00000000000E+00 -0.00000000000E+00 -0.11289020941E+04  0.11289020941E+04  0.00000000000E+00 0. -1.
          6    1    1    2  501    0 -0.28854594655E+02 -0.14517661022E+02 -0.29435900067E+03  0.34295709847E+03  0.17300000000E+03 0.  1.
         -6    1    1    2    0  502  0.28854594655E+02  0.14517661022E+02 -0.80068755652E+03  0.81980053262E+03  0.17300000000E+03 0. -1.
<mgrwt>
<rscale>  2 0.17598963E+03</rscale>
<asrwt>0</asrwt>
<pdfrwt beam="1">  1       21 0.52085447E-02 0.17598963E+03</pdfrwt>
<pdfrwt beam="2">  1       21 0.17367723E+00 0.17598963E+03</pdfrwt>
<totfact> 0.50990480E+04</totfact>
</mgrwt>
</event>
<event>
 4    1  0.4263413E+000  0.2317177E+03  0.7546771E-02  0.1125437E+00
         21   -1    0    0  501  502  0.00000000000E+00  0.00000000000E+00  0.80537169661E+03  0.80537169661E+03  0.00000000000E+00 0.  1.
         21   -1    0    0  502  503 -0.00000000000E+00 -0.00000000000E+00 -0.66673670724E+02  0.66673670724E+02  0.00000000000E+00 0. -1.
          6    1    1    2  501    0 -0.10284967593E+03 -0.11483038631E+03  0.36557924714E+03  0.43282936523E+03  0.17300000000E+03 0.  1.
         -6    1    1    2    0  503  0.10284967593E+03  0.11483038631E+03  0.37311877875E+03  0.43921600211E+03  0.17300000000E+03 0. -1.
<mgrwt>
<rscale>  2 0.23171766E+03</rscale>
<asrwt>0</asrwt>
<pdfrwt beam="1">  1       21 0.12390333E+00 0.23171766E+03</pdfrwt>
<pdfrwt beam="2">  1       21 0.10257488E-01 0.23171766E+03</pdfrwt>
<totfact> 0.37040344E+04</totfact>
</mgrwt>
</event>
<event>
 4    1  0.4263413E+000  0.1993613E+03  0.7546771E-02  0.1150279E+00
         21   -1    0    0  501  502  0.00000000000E+00  0.00000000000E+00  0.11458811580E+03  0.11458811580E+03  0.00000000000E+00 0. -1.
         21   -1    0    0  502  503 -0.00000000000E+00 -0.00000000000E+00 -0.52691111748E+03  0.52691111748E+03  0.00000000000E+00 0. -1.
          6    1    1    2  501    0  0.98371365167E+02  0.11789545062E+02 -0.18658980204E+02  0.20023255579E+03  0.17300000000E+03 0. -1.
         -6    1    1    2    0  503 -0.98371365167E+02 -0.11789545062E+02 -0.39366402147E+03  0.44126667748E+03  0.17300000000E+03 0. -1.
<mgrwt>
<rscale>  2 0.19936128E+03</rscale>
<asrwt>0</asrwt>
<pdfrwt beam="1">  1       21 0.17628940E-01 0.19936128E+03</pdfrwt>
<pdfrwt beam="2">  1       21 0.81063252E-01 0.19936128E+03</pdfrwt>
<totfact> 0.38809041E+04</totfact>
</mgrwt>
</event>
<event>
 4    1  0.4263413E+000  0.1772627E+03  0.7546771E-02  0.1170479E+00
         21   -1    0    0  503  502  0.00000000000E+00  0.00000000000E+00  0.72625510083E+03  0.72625510083E+03  0.00000000000E+00 0. -1.
         21   -1    0    0  501  503 -0.00000000000E+00 -0.00000000000E+00 -0.58381385701E+02  0.58381385701E+02  0.00000000000E+00 0. -1.
          6    1    1    2  501    0 -0.29069522414E+02 -0.25456666022E+02  0.13431302506E+03  0.22240069173E+03  0.17300000000E+03 0. -1.
         -6    1    1    2    0  502  0.29069522414E+02  0.25456666022E+02  0.53356069007E+03  0.56223579481E+03  0.17300000000E+03 0. -1.
<mgrwt>
<rscale>  2 0.17726274E+03</rscale>
<asrwt>0</asrwt>
<pdfrwt beam="1">  1       21 0.11173155E+00 0.17726274E+03</pdfrwt>
<pdfrwt beam="2">  1       21 0.89817522E-02 0.17726274E+03</pdfrwt>
<totfact> 0.62109415E+04</totfact>
</mgrwt>
</event>
<event>
 4    1  0.4263413E+000  0.1891832E+03  0.7546771E-02  0.1159200E+00
         21   -1    0    0  503  502  0.00000000000E+00  0.00000000000E+00  0.71659654343E+02  0.71659654343E+02  0.00000000000E+00 0. -1.
         21   -1    0    0  501  503 -0.00000000000E+00 -0.00000000000E+00 -0.51472799453E+03  0.51472799453E+03  0.00000000000E+00 0. -1.
          6    1    1    2  501    0 -0.22781282078E+02 -0.73091036515E+02 -0.27204964864E+03  0.33136278873E+03  0.17300000000E+03 0. -1.
         -6    1    1    2    0  502  0.22781282078E+02  0.73091036515E+02 -0.17101869155E+03  0.25502486015E+03  0.17300000000E+03 0. -1.
<mgrwt>
<rscale>  2 0.18918321E+03</rscale>
<asrwt>0</asrwt>
<pdfrwt beam="1">  1       21 0.11024562E-01 0.18918321E+03</pdfrwt>
<pdfrwt beam="2">  1       21 0.79188923E-01 0.18918321E+03</pdfrwt>
<totfact> 0.96203690E+04</totfact>
</mgrwt>
</event>
<event>
 4    1  0.4263413E+000  0.1918376E+03  0.7546771E-02  0.1156814E+00
         21   -1    0    0  501  502  0.00000000000E+00  0.00000000000E+00  0.18044022404E+03  0.18044022404E+03  0.00000000000E+00 0. -1.
         21   -1    0    0  502  503 -0.00000000000E+00 -0.00000000000E+00 -0.43971478578E+03  0.43971478578E+03  0.00000000000E+00 0. -1.
          6    1    1    2  501    0 -0.60535585306E+02 -0.56640138279E+02  0.97411780243E+02  0.21515277661E+03  0.17300000000E+03 0. -1.
         -6    1    1    2    0  503  0.60535585306E+02  0.56640138279E+02 -0.35668634198E+03  0.40500223321E+03  0.17300000000E+03 0. -1.
<mgrwt>
<rscale>  2 0.19183759E+03</rscale>
<asrwt>0</asrwt>
<pdfrwt beam="1">  1       21 0.27760035E-01 0.19183759E+03</pdfrwt>
<pdfrwt beam="2">  1       21 0.67648428E-01 0.19183759E+03</pdfrwt>
<totfact> 0.24756914E+04</totfact>
</mgrwt>
</event>
<event>
 4    1  0.4263413E+000  0.2519394E+03  0.7546771E-02  0.1112085E+00
         21   -1    0    0  503  502  0.00000000000E+00  0.00000000000E+00  0.25358439436E+03  0.25358439436E+03  0.00000000000E+00 0. -1.
         21   -1    0    0  501  503 -0.00000000000E+00 -0.00000000000E+00 -0.50625869699E+03  0.50625869699E+03  0.00000000000E+00 0.  1.
          6    1    1    2  501    0  0.12830160722E+02  0.18270155834E+03 -0.39647676595E+03  0.46975237985E+03  0.17300000000E+03 0.  1.
         -6    1    1    2    0  502 -0.12830160722E+02 -0.18270155834E+03  0.14380246331E+03  0.29009071150E+03  0.17300000000E+03 0. -1.
<mgrwt>
<rscale>  2 0.25193942E+03</rscale>
<asrwt>0</asrwt>
<pdfrwt beam="1">  1       21 0.39012984E-01 0.25193942E+03</pdfrwt>
<pdfrwt beam="2">  1       21 0.77885952E-01 0.25193942E+03</pdfrwt>
<totfact> 0.89119518E+03</totfact>
</mgrwt>
</event>
<event>
 4    1  0.4263413E+000  0.1766322E+03  0.7546771E-02  0.1171103E+00
         21   -1    0    0  501  502  0.00000000000E+00  0.00000000000E+00  0.33444198076E+03  0.33444198076E+03  0.00000000000E+00 0.  1.
         21   -1    0    0  502  503 -0.00000000000E+00 -0.00000000000E+00 -0.15783297797E+03  0.15783297797E+03  0.00000000000E+00 0.  1.
          6    1    1    2  501    0  0.13823271475E+01  0.35609168868E+02  0.24570827106E+03  0.30260779601E+03  0.17300000000E+03 0.  1.
         -6    1    1    2    0  503 -0.13823271475E+01 -0.35609168868E+02 -0.69099268278E+02  0.18966716272E+03  0.17300000000E+03 0.  1.
<mgrwt>
<rscale>  2 0.17663217E+03</rscale>
<asrwt>0</asrwt>
<pdfrwt beam="1">  1       21 0.51452612E-01 0.17663217E+03</pdfrwt>
<pdfrwt beam="2">  1       21 0.24281997E-01 0.17663217E+03</pdfrwt>
<totfact> 0.57888951E+04</totfact>
</mgrwt>
</event>
<event>
 4    1  0.4263413E+000  0.2328274E+03  0.7546771E-02  0.1124665E+00
         21   -1    0    0  503  502  0.00000000000E+00  0.00000000000E+00  0.14307795597E+03  0.14307795597E+03  0.00000000000E+00 0.  1.
         21   -1    0    0  501  503 -0.00000000000E+00 -0.00000000000E+00 -0.47293629520E+03  0.47293629520E+03  0.00000000000E+00 0. -1.
          6    1    1    2  501    0 -0.14222071181E+03 -0.63662120930E+02 -0.30229096297E+03  0.38156051002E+03  0.17300000000E+03 0. -1.
         -6    1    1    2    0  502  0.14222071181E+03  0.63662120930E+02 -0.27567376258E+02  0.23445374116E+03  0.17300000000E+03 0.  1.
<mgrwt>
<rscale>  2 0.23282740E+03</rscale>
<asrwt>0</asrwt>
<pdfrwt beam="1">  1       21 0.22011993E-01 0.23282740E+03</pdfrwt>
<pdfrwt beam="2">  1       21 0.72759430E-01 0.23282740E+03</pdfrwt>
<totfact> 0.32124526E+04</totfact>
</mgrwt>
</event>
<event>
 4    1  0.4263413E+000  0.1769224E+03  0.7546771E-02  0.1170815E+00
         21   -1    0    0  501  502  0.00000000000E+00  0.00000000000E+00  0.55676997866E+03  0.55676997866E+03  0.00000000000E+00 0.  1.
         21   -1    0    0  502  503 -0.00000000000E+00 -0.00000000000E+00 -0.62029325041E+02  0.62029325041E+02  0.00000000000E+00 0.  1.
          6    1    1    2  501    0  0.64450299715E+01  0.36482653017E+02  0.34205722558E+03  0.38510345098E+03  0.17300000000E+03 0.  1.
         -6    1    1    2    0  503 -0.64450299715E+01 -0.36482653017E+02  0.15268342804E+03  0.23369585272E+03  0.17300000000E+03 0.  1.
<mgrwt>
<rscale>  2 0.17692236E+03</rscale>
<asrwt>0</asrwt>
<pdfrwt beam="1">  1       21 0.85656916E-01 0.17692236E+03</pdfrwt>
<pdfrwt beam="2">  1       21 0.95429735E-02 0.17692236E+03</pdfrwt>
<totfact> 0.10439771E+05</totfact>
</mgrwt>
</event>
<event>
 4    1  0.4263413E+000  0.4685373E+03  0.7546771E-02  0.1022334E+00
         21   -1    0    0  501  502  0.00000000000E+00  0.00000000000E+00  0.39434269920E+04  0.39434269920E+04  0.00000000000E+00 0.  1.
         21   -1    0    0  502  503 -0.00000000000E+00 -0.00000000000E+00 -0.11008177699E+03  0.11008177699E+03  0.00000000000E+00 0. -1.
          6    1    1    2  501    0 -0.19575087650E+03 -0.38894708747E+03  0.33416016505E+04  0.33742893820E+04  0.17300000000E+03 0.  1.
         -6    1    1    2    0  503  0.19575087650E+03  0.38894708747E+03  0.49174356449E+03  0.67921938703E+03  0.17300000000E+03 0. -1.
<mgrwt>
<rscale>  2 0.46853734E+03</rscale>
<asrwt>0</asrwt>
<pdfrwt beam="1">  1       21 0.60668097E+00 0.46853734E+03</pdfrwt>
<pdfrwt beam="2">  1       21 0.16935661E-01 0.46853734E+03</pdfrwt>
<totfact> 0.68381492E+00</totfact>
</mgrwt>
</event>
<event>
 4    1  0.4263413E+000  0.1821981E+03  0.7546771E-02  0.1165693E+00
         21   -1    0    0  501  502  0.00000000000E+00  0.00000000000E+00  0.43836726611E+03  0.43836726611E+03  0.00000000000E+00 0. -1.
         21   -1    0    0  502  503 -0.00000000000E+00 -0.00000000000E+00 -0.92642130828E+02  0.92642130828E+02  0.00000000000E+00 0. -1.
          6    1    1    2  501    0  0.11100422681E+02  0.56070613080E+02  0.28631366381E+03  0.33936948466E+03  0.17300000000E+03 0. -1.
         -6    1    1    2    0  503 -0.11100422681E+02 -0.56070613080E+02  0.59411471473E+02  0.19163991228E+03  0.17300000000E+03 0. -1.
<mgrwt>
<rscale>  2 0.18219806E+03</rscale>
<asrwt>0</asrwt>
<pdfrwt beam="1">  1       21 0.67441117E-01 0.18219806E+03</pdfrwt>
<pdfrwt beam="2">  1       21 0.14252636E-01 0.18219806E+03</pdfrwt>
<totfact> 0.86928508E+04</totfact>
</mgrwt>
</event>
<event>
 4    1  0.4263413E+000  0.3220466E+03  0.7546771E-02  0.1074711E+00
         21   -1    0    0  503  502  0.00000000000E+00  0.00000000000E+00  0.28222898638E+03  0.28222898638E+03  0.00000000000E+00 0. -1.
         21   -1    0    0  501  503 -0.00000000000E+00 -0.00000000000E+00 -0.36756104310E+03  0.36756104310E+03  0.00000000000E+00 0. -1.
          6    1    1    2  501    0 -0.27064153228E+03 -0.23198734452E+02 -0.37896045345E+02  0.32426860861E+03  0.17300000000E+03 0. -1.
         -6    1    1    2    0  502  0.27064153228E+03  0.23198734452E+02 -0.47436011370E+02  0.32552142088E+03  0.17300000000E+03 0. -1.
<mgrwt>
<rscale>  2 0.32204661E+03</rscale>
<asrwt>0</asrwt>
<pdfrwt beam="1">  1       21 0.43419844E-01 0.32204661E+03</pdfrwt>
<pdfrwt beam="2">  1       21 0.56547853E-01 0.32204661E+03</pdfrwt>
<totfact> 0.14042611E+04</totfact>
</mgrwt>
</event>
<event>
 4    1  0.4263413E+000  0.3203713E+03  0.7546771E-02  0.1075479E+00
         21   -1    0    0  501  502  0.00000000000E+00  0.00000000000E+00  0.79419759122E+02  0.79419759122E+02  0.00000000000E+00 0.  1.
         21   -1    0    0  502  503 -0.00000000000E+00 -0.00000000000E+00 -0.12947097761E+04  0.12947097761E+04  0.00000000000E+00 0. -1.
          6    1    1    2  501    0 -0.23975145141E+03 -0.12340194777E+03 -0.57828711594E+03  0.66110043687E+03  0.17300000000E+03 0.  1.
         -6    1    1    2    0  503  0.23975145141E+03  0.12340194777E+03 -0.63700290108E+03  0.71302909839E+03  0.17300000000E+03 0.  1.
<mgrwt>
<rscale>  2 0.32037135E+03</rscale>
<asrwt>0</asrwt>
<pdfrwt beam="1">  1       21 0.12218425E-01 0.32037135E+03</pdfrwt>
<pdfrwt beam="2">  1       21 0.19918611E+00 0.32037135E+03</pdfrwt>
<totfact> 0.70727682E+03</totfact>
</mgrwt>
</event>
<event>
 4    1  0.4263413E+000  0.2062911E+03  0.7546771E-02  0.1144537E+00
         21   -1    0    0  503  502  0.00000000000E+00  0.00000000000E+00  0.46097781815E+02  0.46097781815E+02  0.00000000000E+00 0. -1.
         21   -1    0    0  501  503 -0.00000000000E+00 -0.00000000000E+00 -0.22421821006E+04  0.22421821006E+04  0.00000000000E+00 0. -1.
          6    1    1    2  501    0 -0.10657473128E+03 -0.35620666791E+02 -0.19755851386E+04  0.19863264196E+04  0.17300000000E+03 0. -1.
         -6    1    1    2    0  502  0.10657473128E+03  0.35620666791E+02 -0.22049918014E+03  0.30195346279E+03  0.17300000000E+03 0. -1.
<mgrwt>
<rscale>  2 0.20629107E+03</rscale>
<asrwt>0</asrwt>
<pdfrwt beam="1">  1       21 0.70919660E-02 0.20629107E+03</pdfrwt>
<pdfrwt beam="2">  1       21 0.34495111E+00 0.20629107E+03</pdfrwt>
<totfact> 0.27212424E+03</totfact>
</mgrwt>
</event>
<event>
 4    1  0.4263413E+000  0.1762215E+03  0.7546771E-02  0.1171511E+00
         21   -1    0    0  503  502  0.00000000000E+00  0.00000000000E+00  0.80008259658E+02  0.80008259658E+02  0.00000000000E+00 0.  1.
         21   -1    0    0  501  503 -0.00000000000E+00 -0.00000000000E+00 -0.52637505773E+03  0.52637505773E+03  0.00000000000E+00 0.  1.
          6    1    1    2  501    0  0.18447813545E+02 -0.28012657276E+02 -0.37856015927E+03  0.41756655156E+03  0.17300000000E+03 0.  1.
         -6    1    1    2    0  502 -0.18447813545E+02  0.28012657276E+02 -0.67806638797E+02  0.18881676583E+03  0.17300000000E+03 0.  1.
<mgrwt>
<rscale>  2 0.17622154E+03</rscale>
<asrwt>0</asrwt>
<pdfrwt beam="1">  1       21 0.12308963E-01 0.17622154E+03</pdfrwt>
<pdfrwt beam="2">  1       21 0.80980780E-01 0.17622154E+03</pdfrwt>
<totfact> 0.75556703E+04</totfact>
</mgrwt>
</event>
<event>
 4    1  0.4263413E+000  0.2035231E+03  0.7546771E-02  0.1146800E+00
         21   -1    0    0  503  502  0.00000000000E+00  0.00000000000E+00  0.48045419926E+02  0.48045419926E+02  0.00000000000E+00 0. -1.
         21   -1    0    0  501  503 -0.00000000000E+00 -0.00000000000E+00 -0.86521292513E+03  0.86521292513E+03  0.00000000000E+00 0. -1.
          6    1    1    2  501    0  0.89497514682E+02  0.59015757506E+02 -0.38135096943E+03  0.43226175710E+03  0.17300000000E+03 0. -1.
         -6    1    1    2    0  502 -0.89497514682E+02 -0.59015757506E+02 -0.43581653578E+03  0.48099658796E+03  0.17300000000E+03 0. -1.
<mgrwt>
<rscale>  2 0.20352313E+03</rscale>
<asrwt>0</asrwt>
<pdfrwt beam="1">  1       21 0.73916031E-02 0.20352313E+03</pdfrwt>
<pdfrwt beam="2">  1       21 0.13310968E+00 0.20352313E+03</pdfrwt>
<totfact> 0.55730841E+04</totfact>
</mgrwt>
</event>
<event>
 4    1  0.4263413E+000  0.2597450E+03  0.7546771E-02  0.1107297E+00
         21   -1    0    0  503  502  0.00000000000E+00  0.00000000000E+00  0.15309319233E+03  0.15309319233E+03  0.00000000000E+00 0. -1.
         21   -1    0    0  501  503 -0.00000000000E+00 -0.00000000000E+00 -0.58399201458E+03  0.58399201458E+03  0.00000000000E+00 0.  1.
          6    1    1    2  501    0  0.14400247718E+03  0.12962163366E+03 -0.39800790943E+03  0.47526600690E+03  0.17300000000E+03 0.  1.
         -6    1    1    2    0  502 -0.14400247718E+03 -0.12962163366E+03 -0.32890912814E+02  0.26181920001E+03  0.17300000000E+03 0. -1.
<mgrwt>
<rscale>  2 0.25974503E+03</rscale>
<asrwt>0</asrwt>
<pdfrwt beam="1">  1       21 0.23552799E-01 0.25974503E+03</pdfrwt>
<pdfrwt beam="2">  1       21 0.89844925E-01 0.25974503E+03</pdfrwt>
<totfact> 0.17234938E+04</totfact>
</mgrwt>
</event>
<event>
 4    1  0.4263413E+000  0.2291451E+03  0.7546771E-02  0.1127243E+00
         21   -1    0    0  503  502  0.00000000000E+00  0.00000000000E+00  0.20753882483E+04  0.20753882483E+04  0.00000000000E+00 0. -1.
         21   -1    0    0  501  503 -0.00000000000E+00 -0.00000000000E+00 -0.26892917063E+02  0.26892917063E+02  0.00000000000E+00 0. -1.
          6    1    1    2  501    0 -0.80436144068E+02  0.12691931326E+03  0.76843164161E+03  0.80186948638E+03  0.17300000000E+03 0. -1.
         -6    1    1    2    0  502  0.80436144068E+02 -0.12691931326E+03  0.12800636897E+04  0.13004116790E+04  0.17300000000E+03 0. -1.
<mgrwt>
<rscale>  2 0.22914512E+03</rscale>
<asrwt>0</asrwt>
<pdfrwt beam="1">  1       21 0.31929037E+00 0.22914512E+03</pdfrwt>
<pdfrwt beam="2">  1       21 0.41373735E-02 0.22914512E+03</pdfrwt>
<totfact> 0.94144005E+03</totfact>
</mgrwt>
</event>
<event>
 4    1  0.4263413E+000  0.1888328E+03  0.7546771E-02  0.1159518E+00
         21   -1    0    0  501  502  0.00000000000E+00  0.00000000000E+00  0.42386670541E+02  0.42386670541E+02  0.00000000000E+00 0.  1.
         21   -1    0    0  502  503 -0.00000000000E+00 -0.00000000000E+00 -0.13480380073E+04  0.13480380073E+04  0.00000000000E+00 0.  1.
          6    1    1    2  501    0  0.30712944947E+02  0.69177731019E+02 -0.22656133785E+03  0.29493708357E+03  0.17300000000E+03 0.  1.
         -6    1    1    2    0  503 -0.30712944947E+02 -0.69177731019E+02 -0.10790899989E+04  0.10954875942E+04  0.17300000000E+03 0.  1.
<mgrwt>
<rscale>  2 0.18883285E+03</rscale>
<asrwt>0</asrwt>
<pdfrwt beam="1">  1       21 0.65210284E-02 0.18883285E+03</pdfrwt>
<pdfrwt beam="2">  1       21 0.20739039E+00 0.18883285E+03</pdfrwt>
<totfact> 0.20657537E+04</totfact>
</mgrwt>
</event>
<event>
 4    1  0.4263413E+000  0.1754403E+03  0.7546771E-02  0.1172290E+00
         21   -1    0    0  503  502  0.00000000000E+00  0.00000000000E+00  0.24949419246E+03  0.24949419246E+03  0.00000000000E+00 0.  1.
         21   -1    0    0  501  503 -0.00000000000E+00 -0.00000000000E+00 -0.62706286148E+03  0.62706286148E+03  0.00000000000E+00 0.  1.
          6    1    1    2  501    0  0.18582168011E+02 -0.22471897501E+02 -0.58159110092E+03  0.60747633025E+03  0.17300000000E+03 0.  1.
         -6    1    1    2    0  502 -0.18582168011E+02  0.22471897501E+02  0.20402243189E+03  0.26908072369E+03  0.17300000000E+03 0.  1.
<mgrwt>
<rscale>  2 0.17544026E+03</rscale>
<asrwt>0</asrwt>
<pdfrwt beam="1">  1       21 0.38383723E-01 0.17544026E+03</pdfrwt>
<pdfrwt beam="2">  1       21 0.96471208E-01 0.17544026E+03</pdfrwt>
<totfact> 0.59285296E+03</totfact>
</mgrwt>
</event>
<event>
 4    1  0.4263413E+000  0.1877417E+03  0.7546771E-02  0.1160514E+00
         21   -1    0    0  501  502  0.00000000000E+00  0.00000000000E+00  0.79538963867E+03  0.79538963867E+03  0.00000000000E+00 0.  1.
         21   -1    0    0  502  503 -0.00000000000E+00 -0.00000000000E+00 -0.13967137008E+03  0.13967137008E+03  0.00000000000E+00 0.  1.
          6    1    1    2  501    0  0.45965215943E+02  0.56614088805E+02  0.71416670283E+03  0.73843146978E+03  0.17300000000E+03 0.  1.
         -6    1    1    2    0  503 -0.45965215943E+02 -0.56614088805E+02 -0.58448434240E+02  0.19662953896E+03  0.17300000000E+03 0.  1.
<mgrwt>
<rscale>  2 0.18774173E+03</rscale>
<asrwt>0</asrwt>
<pdfrwt beam="1">  1       21 0.12236763E+00 0.18774173E+03</pdfrwt>
<pdfrwt beam="2">  1       21 0.21487904E-01 0.18774173E+03</pdfrwt>
<totfact> 0.10187054E+04</totfact>
</mgrwt>
</event>
<event>
 4    1  0.4263413E+000  0.2198926E+03  0.7546771E-02  0.1133963E+00
         21   -1    0    0  503  502  0.00000000000E+00  0.00000000000E+00  0.12852099172E+03  0.12852099172E+03  0.00000000000E+00 0. -1.
         21   -1    0    0  501  503 -0.00000000000E+00 -0.00000000000E+00 -0.82330799784E+03  0.82330799784E+03  0.00000000000E+00 0.  1.
          6    1    1    2  501    0  0.99773683158E+02  0.92026965896E+02 -0.69809859234E+03  0.73191146659E+03  0.17300000000E+03 0.  1.
         -6    1    1    2    0  502 -0.99773683158E+02 -0.92026965896E+02  0.33115862193E+01  0.21991752296E+03  0.17300000000E+03 0. -1.
<mgrwt>
<rscale>  2 0.21989259E+03</rscale>
<asrwt>0</asrwt>
<pdfrwt beam="1">  1       21 0.19772460E-01 0.21989259E+03</pdfrwt>
<pdfrwt beam="2">  1       21 0.12666277E+00 0.21989259E+03</pdfrwt>
<totfact> 0.10677880E+04</totfact>
</mgrwt>
</event>
<event>
 4    1  0.4263413E+000  0.1913965E+03  0.7546771E-02  0.1157208E+00
         21   -1    0    0  503  502  0.00000000000E+00  0.00000000000E+00  0.44143256441E+03  0.44143256441E+03  0.00000000000E+00 0.  1.
         21   -1    0    0  501  503 -0.00000000000E+00 -0.00000000000E+00 -0.13187811188E+03  0.13187811188E+03  0.00000000000E+00 0.  1.
          6    1    1    2  501    0 -0.80593778853E+02 -0.14431448303E+02 -0.19762410120E+02  0.19241407626E+03  0.17300000000E+03 0.  1.
         -6    1    1    2    0  502  0.80593778853E+02  0.14431448303E+02  0.32931686265E+03  0.38089660003E+03  0.17300000000E+03 0.  1.
<mgrwt>
<rscale>  2 0.19139651E+03</rscale>
<asrwt>0</asrwt>
<pdfrwt beam="1">  1       21 0.67912701E-01 0.19139651E+03</pdfrwt>
<pdfrwt beam="2">  1       21 0.20288941E-01 0.19139651E+03</pdfrwt>
<totfact> 0.44534817E+04</totfact>
</mgrwt>
</event>
<event>
 4    1  0.4263413E+000  0.1906093E+03  0.7546771E-02  0.1157913E+00
         21   -1    0    0  503  502  0.00000000000E+00  0.00000000000E+00  0.95015698333E+02  0.95015698333E+02  0.00000000000E+00 0. -1.
         21   -1    0    0  501  503 -0.00000000000E+00 -0.00000000000E+00 -0.13099755125E+04  0.13099755125E+04  0.00000000000E+00 0. -1.
          6    1    1    2  501    0  0.73789798086E+02 -0.30950827446E+02 -0.11986219819E+04  0.12136830490E+04  0.17300000000E+03 0. -1.
         -6    1    1    2    0  502 -0.73789798086E+02  0.30950827446E+02 -0.16337832307E+02  0.19130816184E+03  0.17300000000E+03 0. -1.
<mgrwt>
<rscale>  2 0.19060925E+03</rscale>
<asrwt>0</asrwt>
<pdfrwt beam="1">  1       21 0.14617800E-01 0.19060925E+03</pdfrwt>
<pdfrwt beam="2">  1       21 0.20153469E+00 0.19060925E+03</pdfrwt>
<totfact> 0.54070635E+03</totfact>
</mgrwt>
</event>
<event>
 4    1  0.4263413E+000  0.1849949E+03  0.7546771E-02  0.1163055E+00
         21   -1    0    0  501  502  0.00000000000E+00  0.00000000000E+00  0.31505973508E+03  0.31505973508E+03  0.00000000000E+00 0. -1.
         21   -1    0    0  502  503 -0.00000000000E+00 -0.00000000000E+00 -0.11544764775E+03  0.11544764775E+03  0.00000000000E+00 0. -1.
          6    1    1    2  501    0  0.61529448648E+01  0.65240014810E+02  0.15213707976E+03  0.23951786844E+03  0.17300000000E+03 0. -1.
         -6    1    1    2    0  503 -0.61529448648E+01 -0.65240014810E+02  0.47475007562E+02  0.19098951439E+03  0.17300000000E+03 0. -1.
<mgrwt>
<rscale>  2 0.18499491E+03</rscale>
<asrwt>0</asrwt>
<pdfrwt beam="1">  1       21 0.48470728E-01 0.18499491E+03</pdfrwt>
<pdfrwt beam="2">  1       21 0.17761177E-01 0.18499491E+03</pdfrwt>
<totfact> 0.11729270E+05</totfact>
</mgrwt>
</event>
<event>
 4    1  0.4263413E+000  0.3008575E+03  0.7546771E-02  0.1084813E+00
         21   -1    0    0  501  502  0.00000000000E+00  0.00000000000E+00  0.13530774454E+03  0.13530774454E+03  0.00000000000E+00 0.  1.
         21   -1    0    0  502  503 -0.00000000000E+00 -0.00000000000E+00 -0.68937588964E+03  0.68937588964E+03  0.00000000000E+00 0. -1.
          6    1    1    2  501    0  0.19878238052E+03  0.14516138109E+03 -0.34799671754E+03  0.46001845265E+03  0.17300000000E+03 0. -1.
         -6    1    1    2    0  503 -0.19878238052E+03 -0.14516138109E+03 -0.20607142755E+03  0.36466518153E+03  0.17300000000E+03 0.  1.
<mgrwt>
<rscale>  2 0.30085754E+03</rscale>
<asrwt>0</asrwt>
<pdfrwt beam="1">  1       21 0.20816576E-01 0.30085754E+03</pdfrwt>
<pdfrwt beam="2">  1       21 0.10605783E+00 0.30085754E+03</pdfrwt>
<totfact> 0.14402146E+04</totfact>
</mgrwt>
</event>
<event>
 4    1  0.4263413E+000  0.1742413E+03  0.7546771E-02  0.1173496E+00
         21   -1    0    0  501  502  0.00000000000E+00  0.00000000000E+00  0.20148348355E+03  0.20148348355E+03  0.00000000000E+00 0.  1.
         21   -1    0    0  502  503 -0.00000000000E+00 -0.00000000000E+00 -0.15096473674E+03  0.15096473674E+03  0.00000000000E+00 0.  1.
          6    1    1    2  501    0  0.13136437252E+02 -0.16076935532E+02  0.32879089891E+02  0.17731629477E+03  0.17300000000E+03 0.  1.
         -6    1    1    2    0  503 -0.13136437252E+02  0.16076935532E+02  0.17639656918E+02  0.17513192552E+03  0.17300000000E+03 0.  1.
<mgrwt>
<rscale>  2 0.17424131E+03</rscale>
<asrwt>0</asrwt>
<pdfrwt beam="1">  1       21 0.30997459E-01 0.17424131E+03</pdfrwt>
<pdfrwt beam="2">  1       21 0.23225344E-01 0.17424131E+03</pdfrwt>
<totfact> 0.17515804E+05</totfact>
</mgrwt>
</event>
<event>
 4    1  0.4263413E+000  0.1916195E+03  0.7546771E-02  0.1157009E+00
         21   -1    0    0  501  502  0.00000000000E+00  0.00000000000E+00  0.28490126326E+02  0.28490126326E+02  0.00000000000E+00 0. -1.
         21   -1    0    0  502  503 -0.00000000000E+00 -0.00000000000E+00 -0.14966248818E+04  0.14966248818E+04  0.00000000000E+00 0. -1.
          6    1    1    2  501    0  0.10199843212E+02 -0.81761937707E+02 -0.44990553962E+03  0.48901231666E+03  0.17300000000E+03 0. -1.
         -6    1    1    2    0  503 -0.10199843212E+02  0.81761937707E+02 -0.10182292159E+04  0.10361026915E+04  0.17300000000E+03 0. -1.
<mgrwt>
<rscale>  2 0.19161955E+03</rscale>
<asrwt>0</asrwt>
<pdfrwt beam="1">  1       21 0.43830952E-02 0.19161955E+03</pdfrwt>
<pdfrwt beam="2">  1       21 0.23025004E+00 0.19161955E+03</pdfrwt>
<totfact> 0.29309313E+04</totfact>
</mgrwt>
</event>
<event>
 4    1  0.4263413E+000  0.3760996E+03  0.7546771E-02  0.1052385E+00
         21   -1    0    0  503  502  0.00000000000E+00  0.00000000000E+00  0.16590889146E+03  0.16590889146E+03  0.00000000000E+00 0.  1.
         21   -1    0    0  501  503 -0.00000000000E+00 -0.00000000000E+00 -0.95747029183E+03  0.95747029183E+03  0.00000000000E+00 0. -1.
          6    1    1    2  501    0  0.27131155245E+03 -0.19470991985E+03 -0.58168845988E+03  0.69268490364E+03  0.17300000000E+03 0. -1.
         -6    1    1    2    0  502 -0.27131155245E+03  0.19470991985E+03 -0.20987294049E+03  0.43069427966E+03  0.17300000000E+03 0.  1.
<mgrwt>
<rscale>  2 0.37609960E+03</rscale>
<asrwt>0</asrwt>
<pdfrwt beam="1">  1       21 0.25524445E-01 0.37609960E+03</pdfrwt>
<pdfrwt beam="2">  1       21 0.14730312E+00 0.37609960E+03</pdfrwt>
<totfact> 0.40790463E+03</totfact>
</mgrwt>
</event>
<event>
 4    1  0.4263413E+000  0.2025437E+03  0.7546771E-02  0.1147610E+00
         21   -1    0    0  503  502  0.00000000000E+00  0.00000000000E+00  0.18628415576E+03  0.18628415576E+03  0.00000000000E+00 0. -1.
         21   -1    0    0  501  503 -0.00000000000E+00 -0.00000000000E+00 -0.27274768864E+03  0.27274768864E+03  0.00000000000E+00 0. -1.
          6    1    1    2  501    0  0.29094852385E+01  0.10529233786E+03 -0.14395196091E+03  0.24848764269E+03  0.17300000000E+03 0. -1.
         -6    1    1    2    0  502 -0.29094852385E+01 -0.10529233786E+03  0.57488428037E+02  0.21054420171E+03  0.17300000000E+03 0. -1.
<mgrwt>
<rscale>  2 0.20254368E+03</rscale>
<asrwt>0</asrwt>
<pdfrwt beam="1">  1       21 0.28659101E-01 0.20254368E+03</pdfrwt>
<pdfrwt beam="2">  1       21 0.41961183E-01 0.20254368E+03</pdfrwt>
<totfact> 0.63378963E+04</totfact>
</mgrwt>
</event>
<event>
 4    1  0.4263413E+000  0.1787572E+03  0.7546771E-02  0.1169011E+00
         21   -1    0    0  501  502  0.00000000000E+00  0.00000000000E+00  0.42431846882E+03  0.42431846882E+03  0.00000000000E+00 0. -1.
         21   -1    0    0  502  503 -0.00000000000E+00 -0.00000000000E+00 -0.85925854260E+02  0.85925854260E+02  0.00000000000E+00 0. -1.
          6    1    1    2  501    0 -0.29845806575E+02 -0.33680267350E+02  0.25888257911E+03  0.31460184733E+03  0.17300000000E+03 0. -1.
         -6    1    1    2    0  503  0.29845806575E+02  0.33680267350E+02  0.79510035449E+02  0.19564247575E+03  0.17300000000E+03 0. -1.
<mgrwt>
<rscale>  2 0.17875719E+03</rscale>
<asrwt>0</asrwt>
<pdfrwt beam="1">  1       21 0.65279763E-01 0.17875719E+03</pdfrwt>
<pdfrwt beam="2">  1       21 0.13219362E-01 0.17875719E+03</pdfrwt>
<totfact> 0.10705473E+05</totfact>
</mgrwt>
</event>
<event>
 4    1  0.4263413E+000  0.1764822E+03  0.7546771E-02  0.1171252E+00
         21   -1    0    0  503  502  0.00000000000E+00  0.00000000000E+00  0.77916732647E+02  0.77916732647E+02  0.00000000000E+00 0.  1.
         21   -1    0    0  501  503 -0.00000000000E+00 -0.00000000000E+00 -0.44044932035E+03  0.44044932035E+03  0.00000000000E+00 0.  1.
          6    1    1    2  501    0  0.34552298294E+02 -0.48056141147E+01 -0.26006849194E+03  0.31429536386E+03  0.17300000000E+03 0.  1.
         -6    1    1    2    0  502 -0.34552298294E+02  0.48056141147E+01 -0.10246409577E+03  0.20407068914E+03  0.17300000000E+03 0.  1.
<mgrwt>
<rscale>  2 0.17648217E+03</rscale>
<asrwt>0</asrwt>
<pdfrwt beam="1">  1       21 0.11987190E-01 0.17648217E+03</pdfrwt>
<pdfrwt beam="2">  1       21 0.67761433E-01 0.17648217E+03</pdfrwt>
<totfact> 0.11770805E+05</totfact>
</mgrwt>
</event>
<event>
 4    1  0.4263413E+000  0.1910160E+03  0.7546771E-02  0.1157548E+00
         21   -1    0    0  503  502  0.00000000000E+00  0.00000000000E+00  0.24438971661E+03  0.24438971661E+03  0.00000000000E+00 0. -1.
         21   -1    0    0  501  503 -0.00000000000E+00 -0.00000000000E+00 -0.15695584598E+03  0.15695584598E+03  0.00000000000E+00 0. -1.
          6    1    1    2  501    0  0.80981248345E+02  0.39471103111E+00  0.88039738669E+02  0.21032858571E+03  0.17300000000E+03 0. -1.
         -6    1    1    2    0  502 -0.80981248345E+02 -0.39471103111E+00 -0.60586803326E+00  0.19101697688E+03  0.17300000000E+03 0. -1.
<mgrwt>
<rscale>  2 0.19101602E+03</rscale>
<asrwt>0</asrwt>
<pdfrwt beam="1">  1       21 0.37598418E-01 0.19101602E+03</pdfrwt>
<pdfrwt beam="2">  1       21 0.24147053E-01 0.19101602E+03</pdfrwt>
<totfact> 0.11047326E+05</totfact>
</mgrwt>
</event>
<event>
 4    1  0.4263413E+000  0.1783443E+03  0.7546771E-02  0.1169415E+00
         21   -1    0    0  503  502  0.00000000000E+00  0.00000000000E+00  0.80152300958E+02  0.80152300958E+02  0.00000000000E+00 0.  1.
         21   -1    0    0  501  503 -0.00000000000E+00 -0.00000000000E+00 -0.15569711963E+04  0.15569711963E+04  0.00000000000E+00 0. -1.
          6    1    1    2  501    0 -0.24563861390E+02 -0.35697200914E+02 -0.14449985983E+04  0.14559627820E+04  0.17300000000E+03 0. -1.
         -6    1    1    2    0  502  0.24563861390E+02  0.35697200914E+02 -0.31820296993E+02  0.18116071522E+03  0.17300000000E+03 0.  1.
<mgrwt>
<rscale>  2 0.17834426E+03</rscale>
<asrwt>0</asrwt>
<pdfrwt beam="1">  1       21 0.12331123E-01 0.17834426E+03</pdfrwt>
<pdfrwt beam="2">  1       21 0.23953403E+00 0.17834426E+03</pdfrwt>
<totfact> 0.43511155E+03</totfact>
</mgrwt>
</event>
<event>
 4    1  0.4263413E+000  0.1846310E+03  0.7546771E-02  0.1163395E+00
         21   -1    0    0  501  502  0.00000000000E+00  0.00000000000E+00  0.24925328918E+03  0.24925328918E+03  0.00000000000E+00 0.  1.
         21   -1    0    0  502  503 -0.00000000000E+00 -0.00000000000E+00 -0.15609821325E+03  0.15609821325E+03  0.00000000000E+00 0. -1.
          6    1    1    2  501    0  0.57686059685E+02 -0.28842971151E+02  0.11790858859E+03  0.21906855943E+03  0.17300000000E+03 0.  1.
         -6    1    1    2    0  503 -0.57686059685E+02  0.28842971151E+02 -0.24753512659E+02  0.18628294301E+03  0.17300000000E+03 0. -1.
<mgrwt>
<rscale>  2 0.18463098E+03</rscale>
<asrwt>0</asrwt>
<pdfrwt beam="1">  1       21 0.38346660E-01 0.18463098E+03</pdfrwt>
<pdfrwt beam="2">  1       21 0.24015110E-01 0.18463098E+03</pdfrwt>
<totfact> 0.10755152E+05</totfact>
</mgrwt>
</event>
<event>
 4    1  0.4263413E+000  0.2256222E+03  0.7546771E-02  0.1129760E+00
         21   -1    0    0  503  502  0.00000000000E+00  0.00000000000E+00  0.57912417417E+03  0.57912417417E+03  0.00000000000E+00 0. -1.
         21   -1    0    0  501  503 -0.00000000000E+00 -0.00000000000E+00 -0.10798569573E+03  0.10798569573E+03  0.00000000000E+00 0.  1.
          6    1    1    2  501    0 -0.99178161803E+02  0.10554657862E+03  0.87402900267E+02  0.24196002771E+03  0.17300000000E+03 0.  1.
         -6    1    1    2    0  502  0.99178161803E+02 -0.10554657862E+03  0.38373557818E+03  0.44514984219E+03  0.17300000000E+03 0. -1.
<mgrwt>
<rscale>  2 0.22562222E+03</rscale>
<asrwt>0</asrwt>
<pdfrwt beam="1">  1       21 0.89096025E-01 0.22562222E+03</pdfrwt>
<pdfrwt beam="2">  1       21 0.16613184E-01 0.22562222E+03</pdfrwt>
<totfact> 0.34395882E+04</totfact>
</mgrwt>
</event>
<event>
 4    1  0.4263413E+000  0.1748174E+03  0.7546771E-02  0.1172915E+00
         21   -1    0    0  501  502  0.00000000000E+00  0.00000000000E+00  0.27592255971E+03  0.27592255971E+03  0.00000000000E+00 0.  1.
         21   -1    0    0  502  503 -0.00000000000E+00 -0.00000000000E+00 -0.12296511691E+03  0.12296511691E+03  0.00000000000E+00 0.  1.
          6    1    1    2  501    0 -0.12641944496E+02 -0.21732946255E+02  0.13931397970E+03  0.22353864241E+03  0.17300000000E+03 0.  1.
         -6    1    1    2    0  503  0.12641944496E+02  0.21732946255E+02  0.13643463106E+02  0.17534903421E+03  0.17300000000E+03 0.  1.
<mgrwt>
<rscale>  2 0.17481745E+03</rscale>
<asrwt>0</asrwt>
<pdfrwt beam="1">  1       21 0.42449624E-01 0.17481745E+03</pdfrwt>
<pdfrwt beam="2">  1       21 0.18917710E-01 0.17481745E+03</pdfrwt>
<totfact> 0.13753196E+05</totfact>
</mgrwt>
</event>
<event>
 4    1  0.4263413E+000  0.2406649E+03  0.7546771E-02  0.1119351E+00
         21   -1    0    0  503  502  0.00000000000E+00  0.00000000000E+00  0.28262003735E+03  0.28262003735E+03  0.00000000000E+00 0.  1.
         21   -1    0    0  501  503 -0.00000000000E+00 -0.00000000000E+00 -0.46352235367E+03  0.46352235367E+03  0.00000000000E+00 0.  1.
          6    1    1    2  501    0  0.20828947717E+02  0.16600222292E+03 -0.36910016869E+03  0.44062968307E+03  0.17300000000E+03 0.  1.
         -6    1    1    2    0  502 -0.20828947717E+02 -0.16600222292E+03  0.18819785238E+03  0.30551270794E+03  0.17300000000E+03 0.  1.
<mgrwt>
<rscale>  2 0.24066488E+03</rscale>
<asrwt>0</asrwt>
<pdfrwt beam="1">  1       21 0.43480006E-01 0.24066488E+03</pdfrwt>
<pdfrwt beam="2">  1       21 0.71311131E-01 0.24066488E+03</pdfrwt>
<totfact> 0.87630924E+03</totfact>
</mgrwt>
</event>
<event>
 4    1  0.4263413E+000  0.3735796E+03  0.7546771E-02  0.1053333E+00
         21   -1    0    0  501  502  0.00000000000E+00  0.00000000000E+00  0.87619089845E+03  0.87619089845E+03  0.00000000000E+00 0.  1.
         21   -1    0    0  502  503 -0.00000000000E+00 -0.00000000000E+00 -0.37803102446E+03  0.37803102446E+03  0.00000000000E+00 0. -1.
          6    1    1    2  501    0  0.18021516644E+02 -0.33061755961E+03  0.72611838666E+03  0.81658413971E+03  0.17300000000E+03 0.  1.
         -6    1    1    2    0  503 -0.18021516644E+02  0.33061755961E+03 -0.22795851268E+03  0.43763778320E+03  0.17300000000E+03 0. -1.
<mgrwt>
<rscale>  2 0.37357964E+03</rscale>
<asrwt>0</asrwt>
<pdfrwt beam="1">  1       21 0.13479860E+00 0.37357964E+03</pdfrwt>
<pdfrwt beam="2">  1       21 0.58158619E-01 0.37357964E+03</pdfrwt>
<totfact> 0.95754428E+02</totfact>
</mgrwt>
</event>
<event>
 4    1  0.4263413E+000  0.1803673E+03  0.7546771E-02  0.1167448E+00
         21   -1    0    0  501  502  0.00000000000E+00  0.00000000000E+00  0.96779552129E+02  0.96779552129E+02  0.00000000000E+00 0.  1.
         21   -1    0    0  502  503 -0.00000000000E+00 -0.00000000000E+00 -0.34695043262E+03  0.34695043262E+03  0.00000000000E+00 0.  1.
          6    1    1    2  501    0  0.31091991835E+02  0.40455666662E+02 -0.16423175779E+03  0.24393532583E+03  0.17300000000E+03 0.  1.
         -6    1    1    2    0  503 -0.31091991835E+02 -0.40455666662E+02 -0.85939122700E+02  0.19979465892E+03  0.17300000000E+03 0.  1.
<mgrwt>
<rscale>  2 0.18036733E+03</rscale>
<asrwt>0</asrwt>
<pdfrwt beam="1">  1       21 0.14889162E-01 0.18036733E+03</pdfrwt>
<pdfrwt beam="2">  1       21 0.53376990E-01 0.18036733E+03</pdfrwt>
<totfact> 0.13267515E+05</totfact>
</mgrwt>
</event>
<event>
 4    1  0.4263413E+000  0.1793592E+03  0.7546771E-02  0.1168425E+00
         21   -1    0    0  501  502  0.00000000000E+00  0.00000000000E+00  0.20797250509E+03  0.20797250509E+03  0.00000000000E+00 0.  1.
         21   -1    0    0  502  503 -0.00000000000E+00 -0.00000000000E+00 -0.15998116688E+03  0.15998116688E+03  0.00000000000E+00 0.  1.
          6    1    1    2  501    0  0.47094327970E+02  0.47802583802E+01  0.57477420374E+02  0.18834378262E+03  0.17300000000E+03 0.  1.
         -6    1    1    2    0  503 -0.47094327970E+02 -0.47802583802E+01 -0.94860821663E+01  0.17960988935E+03  0.17300000000E+03 0.  1.
<mgrwt>
<rscale>  2 0.17935921E+03</rscale>
<asrwt>0</asrwt>
<pdfrwt beam="1">  1       21 0.31995770E-01 0.17935921E+03</pdfrwt>
<pdfrwt beam="2">  1       21 0.24612487E-01 0.17935921E+03</pdfrwt>
<totfact> 0.14723575E+05</totfact>
</mgrwt>
</event>
<event>
 4    1  0.4263413E+000  0.2825447E+03  0.7546771E-02  0.1094307E+00
         21   -1    0    0  501  502  0.00000000000E+00  0.00000000000E+00  0.11884266173E+04  0.11884266173E+04  0.00000000000E+00 0. -1.
         21   -1    0    0  502  503 -0.00000000000E+00 -0.00000000000E+00 -0.81724920693E+02  0.81724920693E+02  0.00000000000E+00 0. -1.
          6    1    1    2  501    0 -0.96378681333E+02 -0.20152831279E+03  0.82132428689E+03  0.86856496321E+03  0.17300000000E+03 0. -1.
         -6    1    1    2    0  503  0.96378681333E+02  0.20152831279E+03  0.28537740971E+03  0.40158657478E+03  0.17300000000E+03 0. -1.
<mgrwt>
<rscale>  2 0.28254471E+03</rscale>
<asrwt>0</asrwt>
<pdfrwt beam="1">  1       21 0.18283485E+00 0.28254471E+03</pdfrwt>
<pdfrwt beam="2">  1       21 0.12573066E-01 0.28254471E+03</pdfrwt>
<totfact> 0.88283684E+03</totfact>
</mgrwt>
</event>
<event>
 4    1  0.4263413E+000  0.2050834E+03  0.7546771E-02  0.1145520E+00
         21   -1    0    0  501  502  0.00000000000E+00  0.00000000000E+00  0.16339368528E+03  0.16339368528E+03  0.00000000000E+00 0. -1.
         21   -1    0    0  502  503 -0.00000000000E+00 -0.00000000000E+00 -0.29130197153E+03  0.29130197153E+03  0.00000000000E+00 0. -1.
          6    1    1    2  501    0  0.96901404936E+02  0.52347903624E+02  0.13593188290E+02  0.20553335510E+03  0.17300000000E+03 0.  1.
         -6    1    1    2    0  503 -0.96901404936E+02 -0.52347903624E+02 -0.14150147454E+03  0.24916230170E+03  0.17300000000E+03 0.  1.
<mgrwt>
<rscale>  2 0.20508336E+03</rscale>
<asrwt>0</asrwt>
<pdfrwt beam="1">  1       21 0.25137490E-01 0.20508336E+03</pdfrwt>
<pdfrwt beam="2">  1       21 0.44815688E-01 0.20508336E+03</pdfrwt>
<totfact> 0.71233981E+04</totfact>
</mgrwt>
</event>
<event>
 4    1  0.4263413E+000  0.1809222E+03  0.7546771E-02  0.1166914E+00
         21   -1    0    0  501  502  0.00000000000E+00  0.00000000000E+00  0.52902292014E+03  0.52902292014E+03  0.00000000000E+00 0.  1.
         21   -1    0    0  502  503 -0.00000000000E+00 -0.00000000000E+00 -0.83565994863E+02  0.83565994863E+02  0.00000000000E+00 0.  1.
          6    1    1    2  501    0 -0.48662088779E+02 -0.20876504202E+02  0.37878174063E+03  0.41977188370E+03  0.17300000000E+03 0.  1.
         -6    1    1    2    0  503  0.48662088779E+02  0.20876504202E+02  0.66675184647E+02  0.19281703130E+03  0.17300000000E+03 0.  1.
<mgrwt>
<rscale>  2 0.18092216E+03</rscale>
<asrwt>0</asrwt>
<pdfrwt beam="1">  1       21 0.81388140E-01 0.18092216E+03</pdfrwt>
<pdfrwt beam="2">  1       21 0.12856307E-01 0.18092216E+03</pdfrwt>
<totfact> 0.68955459E+04</totfact>
</mgrwt>
</event>
<event>
 4    1  0.4263413E+000  0.1918783E+03  0.7546771E-02  0.1156778E+00
         21   -1    0    0  501  502  0.00000000000E+00  0.00000000000E+00  0.29601110710E+03  0.29601110710E+03  0.00000000000E+00 0.  1.
         21   -1    0    0  502  503 -0.00000000000E+00 -0.00000000000E+00 -0.57176880090E+03  0.57176880090E+03  0.00000000000E+00 0.  1.
          6    1    1    2  501    0 -0.80248141996E+02  0.21178006565E+02  0.24592815051E+03  0.31192615708E+03  0.17300000000E+03 0.  1.
         -6    1    1    2    0  503  0.80248141996E+02 -0.21178006565E+02 -0.52168584431E+03  0.55585375092E+03  0.17300000000E+03 0.  1.
<mgrwt>
<rscale>  2 0.19187827E+03</rscale>
<asrwt>0</asrwt>
<pdfrwt beam="1">  1       21 0.45540171E-01 0.19187827E+03</pdfrwt>
<pdfrwt beam="2">  1       21 0.87964430E-01 0.19187827E+03</pdfrwt>
<totfact> 0.51246079E+03</totfact>
</mgrwt>
</event>
<event>
 4    1  0.4263413E+000  0.1980393E+03  0.7546771E-02  0.1151404E+00
         21   -1    0    0  501  502  0.00000000000E+00  0.00000000000E+00  0.22052448244E+04  0.22052448244E+04  0.00000000000E+00 0. -1.
         21   -1    0    0  502  503 -0.00000000000E+00 -0.00000000000E+00 -0.25199426259E+02  0.25199426259E+02  0.00000000000E+00 0. -1.
          6    1    1    2  501    0 -0.38656231521E+02 -0.88296506475E+02  0.16949652695E+04  0.17064954855E+04  0.17300000000E+03 0. -1.
         -6    1    1    2    0  503  0.38656231521E+02  0.88296506475E+02  0.48508012869E+03  0.52394876519E+03  0.17300000000E+03 0. -1.
<mgrwt>
<rscale>  2 0.19803933E+03</rscale>
<asrwt>0</asrwt>
<pdfrwt beam="1">  1       21 0.33926828E+00 0.19803933E+03</pdfrwt>
<pdfrwt beam="2">  1       21 0.38768366E-02 0.19803933E+03</pdfrwt>
<totfact> 0.82966410E+03</totfact>
</mgrwt>
</event>
<event>
 4    1  0.4263413E+000  0.1782115E+03  0.7546771E-02  0.1169545E+00
         21   -1    0    0  501  502  0.00000000000E+00  0.00000000000E+00  0.47258914617E+03  0.47258914617E+03  0.00000000000E+00 0. -1.
         21   -1    0    0  502  503 -0.00000000000E+00 -0.00000000000E+00 -0.11443478922E+03  0.11443478922E+03  0.00000000000E+00 0. -1.
          6    1    1    2  501    0 -0.14331079744E+02 -0.40310881711E+02  0.36764369260E+03  0.40855994877E+03  0.17300000000E+03 0. -1.
         -6    1    1    2    0  503  0.14331079744E+02  0.40310881711E+02 -0.94893356468E+01  0.17846398662E+03  0.17300000000E+03 0. -1.
<mgrwt>
<rscale>  2 0.17821152E+03</rscale>
<asrwt>0</asrwt>
<pdfrwt beam="1">  1       21 0.72706021E-01 0.17821152E+03</pdfrwt>
<pdfrwt beam="2">  1       21 0.17605353E-01 0.17821152E+03</pdfrwt>
<totfact> 0.50181399E+04</totfact>
</mgrwt>
</event>
<event>
 4    1  0.4263413E+000  0.1890014E+03  0.7546771E-02  0.1159365E+00
         21   -1    0    0  503  502  0.00000000000E+00  0.00000000000E+00  0.31595704683E+03  0.31595704683E+03  0.00000000000E+00 0.  1.
         21   -1    0    0  501  503 -0.00000000000E+00 -0.00000000000E+00 -0.17511093644E+03  0.17511093644E+03  0.00000000000E+00 0.  1.
          6    1    1    2  501    0 -0.65430266236E+02  0.38876929574E+02 -0.75739273438E+02  0.20361231037E+03  0.17300000000E+03 0.  1.
         -6    1    1    2    0  502  0.65430266236E+02 -0.38876929574E+02  0.21658538383E+03  0.28745567290E+03  0.17300000000E+03 0.  1.
<mgrwt>
<rscale>  2 0.18900142E+03</rscale>
<asrwt>0</asrwt>
<pdfrwt beam="1">  1       21 0.48608776E-01 0.18900142E+03</pdfrwt>
<pdfrwt beam="2">  1       21 0.26940144E-01 0.18900142E+03</pdfrwt>
<totfact> 0.53127192E+04</totfact>
</mgrwt>
</event>
<event>
 4    1  0.4263413E+000  0.1730142E+03  0.7546771E-02  0.1174740E+00
         21   -1    0    0  501  502  0.00000000000E+00  0.00000000000E+00  0.57407526712E+03  0.57407526712E+03  0.00000000000E+00 0. -1.
         21   -1    0    0  502  503 -0.00000000000E+00 -0.00000000000E+00 -0.80648414347E+02  0.80648414347E+02  0.00000000000E+00 0. -1.
          6    1    1    2  501    0  0.22028820269E+01 -0.25862972365E+00  0.44133678911E+03  0.47403805860E+03  0.17300000000E+03 0. -1.
         -6    1    1    2    0  503 -0.22028820269E+01  0.25862972365E+00  0.52090063664E+02  0.18068562287E+03  0.17300000000E+03 0. -1.
<mgrwt>
<rscale>  2 0.17301422E+03</rscale>
<asrwt>0</asrwt>
<pdfrwt beam="1">  1       21 0.88319269E-01 0.17301422E+03</pdfrwt>
<pdfrwt beam="2">  1       21 0.12407449E-01 0.17301422E+03</pdfrwt>
<totfact> 0.61218815E+04</totfact>
</mgrwt>
</event>
<event>
 4    1  0.4263413E+000  0.2775796E+03  0.7546771E-02  0.1097018E+00
         21   -1    0    0  503  502  0.00000000000E+00  0.00000000000E+00  0.11436850012E+03  0.11436850012E+03  0.00000000000E+00 0. -1.
         21   -1    0    0  501  503 -0.00000000000E+00 -0.00000000000E+00 -0.10722133994E+04  0.10722133994E+04  0.00000000000E+00 0.  1.
          6    1    1    2  501    0 -0.21659482025E+03 -0.14427016929E+02 -0.84062092973E+03  0.88526493349E+03  0.17300000000E+03 0.  1.
         -6    1    1    2    0  502  0.21659482025E+03  0.14427016929E+02 -0.11722396955E+03  0.30131696602E+03  0.17300000000E+03 0. -1.
<mgrwt>
<rscale>  2 0.27757964E+03</rscale>
<asrwt>0</asrwt>
<pdfrwt beam="1">  1       21 0.17595154E-01 0.27757964E+03</pdfrwt>
<pdfrwt beam="2">  1       21 0.16495590E+00 0.27757964E+03</pdfrwt>
<totfact> 0.63888287E+03</totfact>
</mgrwt>
</event>
<event>
 4    1  0.4263413E+000  0.2122306E+03  0.7546771E-02  0.1139812E+00
         21   -1    0    0  501  502  0.00000000000E+00  0.00000000000E+00  0.59315918233E+02  0.59315918233E+02  0.00000000000E+00 0.  1.
         21   -1    0    0  502  503 -0.00000000000E+00 -0.00000000000E+00 -0.13372006503E+04  0.13372006503E+04  0.00000000000E+00 0.  1.
          6    1    1    2  501    0  0.44919873702E+02  0.11443361428E+03 -0.17993074525E+03  0.27823896244E+03  0.17300000000E+03 0.  1.
         -6    1    1    2    0  503 -0.44919873702E+02 -0.11443361428E+03 -0.10979539868E+04  0.11182776061E+04  0.17300000000E+03 0.  1.
<mgrwt>
<rscale>  2 0.21223065E+03</rscale>
<asrwt>0</asrwt>
<pdfrwt beam="1">  1       21 0.91255263E-02 0.21223065E+03</pdfrwt>
<pdfrwt beam="2">  1       21 0.20572317E+00 0.21223065E+03</pdfrwt>
<totfact> 0.11583405E+04</totfact>
</mgrwt>
</event>
<event>
 4    1  0.4263413E+000  0.1765054E+03  0.7546771E-02  0.1171229E+00
         21   -1    0    0  503  502  0.00000000000E+00  0.00000000000E+00  0.26707508438E+03  0.26707508438E+03  0.00000000000E+00 0.  1.
         21   -1    0    0  501  503 -0.00000000000E+00 -0.00000000000E+00 -0.13706075369E+03  0.13706075369E+03  0.00000000000E+00 0.  1.
          6    1    1    2  501    0 -0.20723402648E+02  0.28208084897E+02 -0.12971613821E+02  0.17698140647E+03  0.17300000000E+03 0.  1.
         -6    1    1    2    0  502  0.20723402648E+02 -0.28208084897E+02  0.14298594451E+03  0.22715443161E+03  0.17300000000E+03 0.  1.
<mgrwt>
<rscale>  2 0.17650540E+03</rscale>
<asrwt>0</asrwt>
<pdfrwt beam="1">  1       21 0.41088474E-01 0.17650540E+03</pdfrwt>
<pdfrwt beam="2">  1       21 0.21086270E-01 0.17650540E+03</pdfrwt>
<totfact> 0.11995391E+05</totfact>
</mgrwt>
</event>
<event>
 4    1  0.4263413E+000  0.2223728E+03  0.7546771E-02  0.1132126E+00
         21   -1    0    0  503  502  0.00000000000E+00  0.00000000000E+00  0.26388640306E+03  0.26388640306E+03  0.00000000000E+00 0. -1.
         21   -1    0    0  501  503 -0.00000000000E+00 -0.00000000000E+00 -0.30092413665E+03  0.30092413665E+03  0.00000000000E+00 0. -1.
          6    1    1    2  501    0  0.95512264046E+02 -0.10197094823E+03 -0.19198214948E+03  0.29378021136E+03  0.17300000000E+03 0. -1.
         -6    1    1    2    0  502 -0.95512264046E+02  0.10197094823E+03  0.15494441589E+03  0.27103032834E+03  0.17300000000E+03 0. -1.
<mgrwt>
<rscale>  2 0.22237281E+03</rscale>
<asrwt>0</asrwt>
<pdfrwt beam="1">  1       21 0.40597909E-01 0.22237281E+03</pdfrwt>
<pdfrwt beam="2">  1       21 0.46296021E-01 0.22237281E+03</pdfrwt>
<totfact> 0.25704328E+04</totfact>
</mgrwt>
</event>
<event>
 4    1  0.4263413E+000  0.1853023E+03  0.7546771E-02  0.1162768E+00
         21   -1    0    0  501  502  0.00000000000E+00  0.00000000000E+00  0.13345420153E+03  0.13345420153E+03  0.00000000000E+00 0. -1.
         21   -1    0    0  502  503 -0.00000000000E+00 -0.00000000000E+00 -0.26976007033E+03  0.26976007033E+03  0.00000000000E+00 0. -1.
          6    1    1    2  501    0  0.64686395133E+02 -0.14953840397E+02 -0.11149246848E+03  0.21625798849E+03  0.17300000000E+03 0. -1.
         -6    1    1    2    0  503 -0.64686395133E+02  0.14953840397E+02 -0.24813400325E+02  0.18695628338E+03  0.17300000000E+03 0. -1.
<mgrwt>
<rscale>  2 0.18530231E+03</rscale>
<asrwt>0</asrwt>
<pdfrwt beam="1">  1       21 0.20531416E-01 0.18530231E+03</pdfrwt>
<pdfrwt beam="2">  1       21 0.41501549E-01 0.18530231E+03</pdfrwt>
<totfact> 0.12317828E+05</totfact>
</mgrwt>
</event>
<event>
 4    1  0.4263413E+000  0.2142094E+03  0.7546771E-02  0.1138275E+00
         21   -1    0    0  501  502  0.00000000000E+00  0.00000000000E+00  0.60975017078E+02  0.60975017078E+02  0.00000000000E+00 0. -1.
         21   -1    0    0  502  503 -0.00000000000E+00 -0.00000000000E+00 -0.76981709251E+03  0.76981709251E+03  0.00000000000E+00 0.  1.
          6    1    1    2  501    0 -0.85079700892E+01  0.12603289173E+03 -0.29217674409E+03  0.36228845571E+03  0.17300000000E+03 0. -1.
         -6    1    1    2    0  503  0.85079700892E+01 -0.12603289173E+03 -0.41666533134E+03  0.46850365387E+03  0.17300000000E+03 0.  1.
<mgrwt>
<rscale>  2 0.21420942E+03</rscale>
<asrwt>0</asrwt>
<pdfrwt beam="1">  1       21 0.93807714E-02 0.21420942E+03</pdfrwt>
<pdfrwt beam="2">  1       21 0.11843340E+00 0.21420942E+03</pdfrwt>
<totfact> 0.48995974E+04</totfact>
</mgrwt>
</event>
<event>
 4    1  0.4263413E+000  0.2851431E+03  0.7546771E-02  0.1092913E+00
         21   -1    0    0  503  502  0.00000000000E+00  0.00000000000E+00  0.23655390827E+03  0.23655390827E+03  0.00000000000E+00 0.  1.
         21   -1    0    0  501  503 -0.00000000000E+00 -0.00000000000E+00 -0.50396683715E+03  0.50396683715E+03  0.00000000000E+00 0. -1.
          6    1    1    2  501    0  0.21664869247E+03  0.66640499916E+02 -0.34249695249E+03  0.44565768774E+03  0.17300000000E+03 0. -1.
         -6    1    1    2    0  502 -0.21664869247E+03 -0.66640499916E+02  0.75084023614E+02  0.29486305767E+03  0.17300000000E+03 0.  1.
<mgrwt>
<rscale>  2 0.28514314E+03</rscale>
<asrwt>0</asrwt>
<pdfrwt beam="1">  1       21 0.36392909E-01 0.28514314E+03</pdfrwt>
<pdfrwt beam="2">  1       21 0.77533359E-01 0.28514314E+03</pdfrwt>
<totfact> 0.10184565E+04</totfact>
</mgrwt>
</event>
<event>
 4    1  0.4263413E+000  0.2097721E+03  0.7546771E-02  0.1141747E+00
         21   -1    0    0  503  502  0.00000000000E+00  0.00000000000E+00  0.11857786421E+04  0.11857786421E+04  0.00000000000E+00 0. -1.
         21   -1    0    0  501  503 -0.00000000000E+00 -0.00000000000E+00 -0.21362214088E+03  0.21362214088E+03  0.00000000000E+00 0.  1.
          6    1    1    2  501    0  0.91091555271E+02 -0.76010897558E+02 -0.14994968460E+03  0.25785506763E+03  0.17300000000E+03 0.  1.
         -6    1    1    2    0  502 -0.91091555271E+02  0.76010897558E+02  0.11221061858E+04  0.11415457153E+04  0.17300000000E+03 0.  1.
<mgrwt>
<rscale>  2 0.20977209E+03</rscale>
<asrwt>0</asrwt>
<pdfrwt beam="1">  1       21 0.18242748E+00 0.20977209E+03</pdfrwt>
<pdfrwt beam="2">  1       21 0.32864945E-01 0.20977209E+03</pdfrwt>
<totfact> 0.15344994E+03</totfact>
</mgrwt>
</event>
<event>
 4    1  0.4263413E+000  0.1756863E+03  0.7546771E-02  0.1172044E+00
         21   -1    0    0  503  502  0.00000000000E+00  0.00000000000E+00  0.18819300774E+03  0.18819300774E+03  0.00000000000E+00 0. -1.
         21   -1    0    0  501  503 -0.00000000000E+00 -0.00000000000E+00 -0.22975243736E+03  0.22975243736E+03  0.00000000000E+00 0. -1.
          6    1    1    2  501    0 -0.28606746045E+02  0.10877469279E+02 -0.13256384584E+03  0.22008825158E+03  0.17300000000E+03 0. -1.
         -6    1    1    2    0  502  0.28606746045E+02 -0.10877469279E+02  0.91004416224E+02  0.19785719352E+03  0.17300000000E+03 0. -1.
<mgrwt>
<rscale>  2 0.17568627E+03</rscale>
<asrwt>0</asrwt>
<pdfrwt beam="1">  1       21 0.28952770E-01 0.17568627E+03</pdfrwt>
<pdfrwt beam="2">  1       21 0.35346529E-01 0.17568627E+03</pdfrwt>
<totfact> 0.88709588E+04</totfact>
</mgrwt>
</event>
<event>
 4    1  0.4263413E+000  0.2740426E+03  0.7546771E-02  0.1098988E+00
         21   -1    0    0  501  502  0.00000000000E+00  0.00000000000E+00  0.83305128516E+03  0.83305128516E+03  0.00000000000E+00 0. -1.
         21   -1    0    0  502  503 -0.00000000000E+00 -0.00000000000E+00 -0.35995042929E+03  0.35995042929E+03  0.00000000000E+00 0.  1.
          6    1    1    2  501    0 -0.37195705035E+01 -0.21250066879E+03  0.75298016205E+03  0.80129800567E+03  0.17300000000E+03 0. -1.
         -6    1    1    2    0  503  0.37195705035E+01  0.21250066879E+03 -0.27987930618E+03  0.39170370878E+03  0.17300000000E+03 0.  1.
<mgrwt>
<rscale>  2 0.27404264E+03</rscale>
<asrwt>0</asrwt>
<pdfrwt beam="1">  1       21 0.12816174E+00 0.27404264E+03</pdfrwt>
<pdfrwt beam="2">  1       21 0.55376989E-01 0.27404264E+03</pdfrwt>
<totfact> 0.12864842E+03</totfact>
</mgrwt>
</event>
<event>
 4    1  0.4263413E+000  0.2919070E+03  0.7546771E-02  0.1089358E+00
         21   -1    0    0  503  502  0.00000000000E+00  0.00000000000E+00  0.10414593115E+04  0.10414593115E+04  0.00000000000E+00 0.  1.
         21   -1    0    0  501  503 -0.00000000000E+00 -0.00000000000E+00 -0.88651062703E+02  0.88651062703E+02  0.00000000000E+00 0. -1.
          6    1    1    2  501    0  0.18459657395E+03  0.14561863952E+03  0.31952330150E+03  0.43278727279E+03  0.17300000000E+03 0.  1.
         -6    1    1    2    0  502 -0.18459657395E+03 -0.14561863952E+03  0.63328494730E+03  0.69732310141E+03  0.17300000000E+03 0. -1.
<mgrwt>
<rscale>  2 0.29190698E+03</rscale>
<asrwt>0</asrwt>
<pdfrwt beam="1">  1       21 0.16022450E+00 0.29190698E+03</pdfrwt>
<pdfrwt beam="2">  1       21 0.13638626E-01 0.29190698E+03</pdfrwt>
<totfact> 0.10980570E+04</totfact>
</mgrwt>
</event>
<event>
 4    1  0.4263413E+000  0.2043884E+03  0.7546771E-02  0.1146088E+00
         21   -1    0    0  501  502  0.00000000000E+00  0.00000000000E+00  0.14137071239E+03  0.14137071239E+03  0.00000000000E+00 0.  1.
         21   -1    0    0  502  503 -0.00000000000E+00 -0.00000000000E+00 -0.31909374867E+03  0.31909374867E+03  0.00000000000E+00 0.  1.
          6    1    1    2  501    0 -0.94836269437E+02  0.53401123164E+02 -0.26252833087E+02  0.20606748701E+03  0.17300000000E+03 0.  1.
         -6    1    1    2    0  503  0.94836269437E+02 -0.53401123164E+02 -0.15147020319E+03  0.25439697406E+03  0.17300000000E+03 0.  1.
<mgrwt>
<rscale>  2 0.20438835E+03</rscale>
<asrwt>0</asrwt>
<pdfrwt beam="1">  1       21 0.21749341E-01 0.20438835E+03</pdfrwt>
<pdfrwt beam="2">  1       21 0.49091345E-01 0.20438835E+03</pdfrwt>
<totfact> 0.77686261E+04</totfact>
</mgrwt>
</event>
<event>
 4    1  0.4263413E+000  0.2676029E+03  0.7546771E-02  0.1102659E+00
         21   -1    0    0  501  502  0.00000000000E+00  0.00000000000E+00  0.17070298364E+04  0.17070298364E+04  0.00000000000E+00 0. -1.
         21   -1    0    0  502  503 -0.00000000000E+00 -0.00000000000E+00 -0.59535723086E+02  0.59535723086E+02  0.00000000000E+00 0.  1.
          6    1    1    2  501    0 -0.10722318534E+03  0.17373969373E+03  0.34370310718E+03  0.43559513144E+03  0.17300000000E+03 0.  1.
         -6    1    1    2    0  503  0.10722318534E+03 -0.17373969373E+03  0.13037910061E+04  0.13309704280E+04  0.17300000000E+03 0. -1.
<mgrwt>
<rscale>  2 0.26760286E+03</rscale>
<asrwt>0</asrwt>
<pdfrwt beam="1">  1       21 0.26261994E+00 0.26760286E+03</pdfrwt>
<pdfrwt beam="2">  1       21 0.91593433E-02 0.26760286E+03</pdfrwt>
<totfact> 0.49629323E+03</totfact>
</mgrwt>
</event>
<event>
 4    1  0.4263413E+000  0.2146649E+03  0.7546771E-02  0.1137924E+00
         21   -1    0    0  501  502  0.00000000000E+00  0.00000000000E+00  0.34678355606E+03  0.34678355606E+03  0.00000000000E+00 0. -1.
         21   -1    0    0  502  503 -0.00000000000E+00 -0.00000000000E+00 -0.30230387389E+03  0.30230387389E+03  0.00000000000E+00 0.  1.
          6    1    1    2  501    0  0.11925876417E+03  0.43924477256E+02  0.26520115194E+03  0.34119300040E+03  0.17300000000E+03 0. -1.
         -6    1    1    2    0  503 -0.11925876417E+03 -0.43924477256E+02 -0.22072146977E+03  0.30789442955E+03  0.17300000000E+03 0.  1.
<mgrwt>
<rscale>  2 0.21466488E+03</rscale>
<asrwt>0</asrwt>
<pdfrwt beam="1">  1       21 0.53351316E-01 0.21466488E+03</pdfrwt>
<pdfrwt beam="2">  1       21 0.46508288E-01 0.21466488E+03</pdfrwt>
<totfact> 0.14525049E+04</totfact>
</mgrwt>
</event>
<event>
 4    1  0.4263413E+000  0.2090531E+03  0.7546771E-02  0.1142318E+00
         21   -1    0    0  501  502  0.00000000000E+00  0.00000000000E+00  0.20832332249E+02  0.20832332249E+02  0.00000000000E+00 0. -1.
         21   -1    0    0  502  503 -0.00000000000E+00 -0.00000000000E+00 -0.24645474396E+04  0.24645474396E+04  0.00000000000E+00 0. -1.
          6    1    1    2  501    0  0.85885453172E+02 -0.79986755983E+02 -0.74251528845E+03  0.77138326776E+03  0.17300000000E+03 0. -1.
         -6    1    1    2    0  503 -0.85885453172E+02  0.79986755983E+02 -0.17011998189E+04  0.17139965041E+04  0.17300000000E+03 0. -1.
<mgrwt>
<rscale>  2 0.20905308E+03</rscale>
<asrwt>0</asrwt>
<pdfrwt beam="1">  1       21 0.32049742E-02 0.20905308E+03</pdfrwt>
<pdfrwt beam="2">  1       21 0.37916114E+00 0.20905308E+03</pdfrwt>
<totfact> 0.65011348E+03</totfact>
</mgrwt>
</event>
<event>
 4    1  0.4263413E+000  0.1748215E+03  0.7546771E-02  0.1172911E+00
         21   -1    0    0  503  502  0.00000000000E+00  0.00000000000E+00  0.89416235253E+03  0.89416235253E+03  0.00000000000E+00 0. -1.
         21   -1    0    0  501  503 -0.00000000000E+00 -0.00000000000E+00 -0.45162368400E+02  0.45162368400E+02  0.00000000000E+00 0. -1.
          6    1    1    2  501    0 -0.80317208756E+01 -0.23854752670E+02  0.19289738292E+03  0.26033047863E+03  0.17300000000E+03 0. -1.
         -6    1    1    2    0  502  0.80317208756E+01  0.23854752670E+02  0.65610260120E+03  0.67899424229E+03  0.17300000000E+03 0. -1.
<mgrwt>
<rscale>  2 0.17482150E+03</rscale>
<asrwt>0</asrwt>
<pdfrwt beam="1">  1       21 0.13756343E+00 0.17482150E+03</pdfrwt>
<pdfrwt beam="2">  1       21 0.69480573E-02 0.17482150E+03</pdfrwt>
<totfact> 0.57911957E+04</totfact>
</mgrwt>
</event>
<event>
 4    1  0.4263413E+000  0.2538044E+03  0.7546771E-02  0.1110924E+00
         21   -1    0    0  503  502  0.00000000000E+00  0.00000000000E+00  0.15864779810E+03  0.15864779810E+03  0.00000000000E+00 0. -1.
         21   -1    0    0  501  503 -0.00000000000E+00 -0.00000000000E+00 -0.72645895543E+03  0.72645895543E+03  0.00000000000E+00 0. -1.
          6    1    1    2  501    0 -0.97307660398E+02 -0.15817364759E+03 -0.57782079672E+03  0.63110502825E+03  0.17300000000E+03 0. -1.
         -6    1    1    2    0  502  0.97307660398E+02  0.15817364759E+03  0.10009639392E+02  0.25400172528E+03  0.17300000000E+03 0. -1.
<mgrwt>
<rscale>  2 0.25380442E+03</rscale>
<asrwt>0</asrwt>
<pdfrwt beam="1">  1       21 0.24407354E-01 0.25380442E+03</pdfrwt>
<pdfrwt beam="2">  1       21 0.11176291E+00 0.25380442E+03</pdfrwt>
<totfact> 0.95785430E+03</totfact>
</mgrwt>
</event>
<event>
 4    1  0.4263413E+000  0.1859647E+03  0.7546771E-02  0.1162152E+00
         21   -1    0    0  501  502  0.00000000000E+00  0.00000000000E+00  0.24792471492E+04  0.24792471492E+04  0.00000000000E+00 0.  1.
         21   -1    0    0  502  503 -0.00000000000E+00 -0.00000000000E+00 -0.14374545189E+02  0.14374545189E+02  0.00000000000E+00 0.  1.
          6    1    1    2  501    0 -0.20269827740E+02 -0.65138311508E+02  0.14469760836E+04  0.14588771888E+04  0.17300000000E+03 0. -1.
         -6    1    1    2    0  503  0.20269827740E+02  0.65138311508E+02  0.10178965204E+04  0.10347445056E+04  0.17300000000E+03 0. -1.
<mgrwt>
<rscale>  2 0.18596469E+03</rscale>
<asrwt>0</asrwt>
<pdfrwt beam="1">  1       21 0.38142230E+00 0.18596469E+03</pdfrwt>
<pdfrwt beam="2">  1       21 0.22114705E-02 0.18596469E+03</pdfrwt>
<totfact> 0.11944010E+04</totfact>
</mgrwt>
</event>
<event>
 4    1  0.4263413E+000  0.1738955E+03  0.7546771E-02  0.1173845E+00
         21   -1    0    0  503  502  0.00000000000E+00  0.00000000000E+00  0.47265571349E+03  0.47265571349E+03  0.00000000000E+00 0. -1.
         21   -1    0    0  501  503 -0.00000000000E+00 -0.00000000000E+00 -0.64173758956E+02  0.64173758956E+02  0.00000000000E+00 0. -1.
          6    1    1    2  501    0  0.12541447986E+02 -0.12383388534E+02  0.18942171913E+03  0.25713853058E+03  0.17300000000E+03 0.  1.
         -6    1    1    2    0  502 -0.12541447986E+02  0.12383388534E+02  0.21906023541E+03  0.27969094187E+03  0.17300000000E+03 0.  1.
<mgrwt>
<rscale>  2 0.17389548E+03</rscale>
<asrwt>0</asrwt>
<pdfrwt beam="1">  1       21 0.72716261E-01 0.17389548E+03</pdfrwt>
<pdfrwt beam="2">  1       21 0.98728863E-02 0.17389548E+03</pdfrwt>
<totfact> 0.14229354E+05</totfact>
</mgrwt>
</event>
<event>
 4    1  0.4263413E+000  0.1876969E+03  0.7546771E-02  0.1160555E+00
         21   -1    0    0  501  502  0.00000000000E+00  0.00000000000E+00  0.19925024281E+03  0.19925024281E+03  0.00000000000E+00 0.  1.
         21   -1    0    0  502  503 -0.00000000000E+00 -0.00000000000E+00 -0.29294412788E+03  0.29294412788E+03  0.00000000000E+00 0.  1.
          6    1    1    2  501    0 -0.10510915871E+02  0.72046104019E+02  0.10810169118E+03  0.21660123752E+03  0.17300000000E+03 0.  1.
         -6    1    1    2    0  503  0.10510915871E+02 -0.72046104019E+02 -0.20179557625E+03  0.27559313317E+03  0.17300000000E+03 0.  1.
<mgrwt>
<rscale>  2 0.18769688E+03</rscale>
<asrwt>0</asrwt>
<pdfrwt beam="1">  1       21 0.30653884E-01 0.18769688E+03</pdfrwt>
<pdfrwt beam="2">  1       21 0.45068327E-01 0.18769688E+03</pdfrwt>
<totfact> 0.48378097E+04</totfact>
</mgrwt>
</event>
<event>
 4    1  0.4263413E+000  0.2216995E+03  0.7546771E-02  0.1132622E+00
         21   -1    0    0  503  502  0.00000000000E+00  0.00000000000E+00  0.57183262233E+03  0.57183262233E+03  0.00000000000E+00 0. -1.
         21   -1    0    0  501  503 -0.00000000000E+00 -0.00000000000E+00 -0.97452568063E+02  0.97452568063E+02  0.00000000000E+00 0. -1.
          6    1    1    2  501    0  0.12226749220E+03  0.65363184939E+02  0.12223531302E+03  0.25316428924E+03  0.17300000000E+03 0. -1.
         -6    1    1    2    0  502 -0.12226749220E+03 -0.65363184939E+02  0.35214474125E+03  0.41612090116E+03  0.17300000000E+03 0. -1.
<mgrwt>
<rscale>  2 0.22169954E+03</rscale>
<asrwt>0</asrwt>
<pdfrwt beam="1">  1       21 0.87974248E-01 0.22169954E+03</pdfrwt>
<pdfrwt beam="2">  1       21 0.14992703E-01 0.22169954E+03</pdfrwt>
<totfact> 0.42841497E+04</totfact>
</mgrwt>
</event>
<event>
 4    1  0.4263413E+000  0.2017569E+03  0.7546771E-02  0.1148265E+00
         21   -1    0    0  503  502  0.00000000000E+00  0.00000000000E+00  0.23690747899E+03  0.23690747899E+03  0.00000000000E+00 0.  1.
         21   -1    0    0  501  503 -0.00000000000E+00 -0.00000000000E+00 -0.71689379527E+03  0.71689379527E+03  0.00000000000E+00 0.  1.
          6    1    1    2  501    0  0.10312826905E+03 -0.11892031147E+02 -0.65583428786E+03  0.68616650561E+03  0.17300000000E+03 0.  1.
         -6    1    1    2    0  502 -0.10312826905E+03  0.11892031147E+02  0.17584797158E+03  0.26763476865E+03  0.17300000000E+03 0.  1.
<mgrwt>
<rscale>  2 0.20175693E+03</rscale>
<asrwt>0</asrwt>
<pdfrwt beam="1">  1       21 0.36447305E-01 0.20175693E+03</pdfrwt>
<pdfrwt beam="2">  1       21 0.11029135E+00 0.20175693E+03</pdfrwt>
<totfact> 0.46766712E+03</totfact>
</mgrwt>
</event>
<event>
 4    1  0.4263413E+000  0.2145452E+03  0.7546771E-02  0.1138016E+00
         21   -1    0    0  501  502  0.00000000000E+00  0.00000000000E+00  0.26547011645E+02  0.26547011645E+02  0.00000000000E+00 0. -1.
         21   -1    0    0  502  503 -0.00000000000E+00 -0.00000000000E+00 -0.21783491262E+04  0.21783491262E+04  0.00000000000E+00 0. -1.
          6    1    1    2  501    0 -0.50342982824E+02  0.11647423014E+03 -0.57792423334E+03  0.61646255498E+03  0.17300000000E+03 0. -1.
         -6    1    1    2    0  503  0.50342982824E+02 -0.11647423014E+03 -0.15738778812E+04  0.15884335829E+04  0.17300000000E+03 0. -1.
<mgrwt>
<rscale>  2 0.21454525E+03</rscale>
<asrwt>0</asrwt>
<pdfrwt beam="1">  1       21 0.40841540E-02 0.21454525E+03</pdfrwt>
<pdfrwt beam="2">  1       21 0.33513077E+00 0.21454525E+03</pdfrwt>
<totfact> 0.78913310E+03</totfact>
</mgrwt>
</event>
<event>
 4    1  0.4263413E+000  0.1813239E+03  0.7546771E-02  0.1166528E+00
         21   -1    0    0  503  502  0.00000000000E+00  0.00000000000E+00  0.12753598510E+03  0.12753598510E+03  0.00000000000E+00 0. -1.
         21   -1    0    0  501  503 -0.00000000000E+00 -0.00000000000E+00 -0.35643039196E+03  0.35643039196E+03  0.00000000000E+00 0. -1.
          6    1    1    2  501    0  0.35754407801E+02 -0.40877423377E+02 -0.24174202272E+03  0.30218793319E+03  0.17300000000E+03 0. -1.
         -6    1    1    2    0  502 -0.35754407801E+02  0.40877423377E+02  0.12847615863E+02  0.18177844386E+03  0.17300000000E+03 0. -1.
<mgrwt>
<rscale>  2 0.18132386E+03</rscale>
<asrwt>0</asrwt>
<pdfrwt beam="1">  1       21 0.19620921E-01 0.18132386E+03</pdfrwt>
<pdfrwt beam="2">  1       21 0.54835444E-01 0.18132386E+03</pdfrwt>
<totfact> 0.75447890E+04</totfact>
</mgrwt>
</event>
<event>
 4    1  0.4263413E+000  0.1911751E+03  0.7546771E-02  0.1157406E+00
         21   -1    0    0  503  502  0.00000000000E+00  0.00000000000E+00  0.10893918459E+03  0.10893918459E+03  0.00000000000E+00 0.  1.
         21   -1    0    0  501  503 -0.00000000000E+00 -0.00000000000E+00 -0.39378673589E+03  0.39378673589E+03  0.00000000000E+00 0.  1.
          6    1    1    2  501    0  0.80430254659E+02  0.12242498695E+02 -0.23913933796E+03  0.30616258360E+03  0.17300000000E+03 0.  1.
         -6    1    1    2    0  502 -0.80430254659E+02 -0.12242498695E+02 -0.45708213337E+02  0.19656333688E+03  0.17300000000E+03 0.  1.
<mgrwt>
<rscale>  2 0.19117506E+03</rscale>
<asrwt>0</asrwt>
<pdfrwt beam="1">  1       21 0.16759875E-01 0.19117506E+03</pdfrwt>
<pdfrwt beam="2">  1       21 0.60582575E-01 0.19117506E+03</pdfrwt>
<totfact> 0.81327061E+04</totfact>
</mgrwt>
</event>
<event>
 4    1  0.4263413E+000  0.2755603E+03  0.7546771E-02  0.1098139E+00
         21   -1    0    0  501  502  0.00000000000E+00  0.00000000000E+00  0.72524852554E+03  0.72524852554E+03  0.00000000000E+00 0. -1.
         21   -1    0    0  502  503 -0.00000000000E+00 -0.00000000000E+00 -0.12116826256E+03  0.12116826256E+03  0.00000000000E+00 0.  1.
          6    1    1    2  501    0 -0.97990886089E+02 -0.19079373968E+03  0.14601852765E+03  0.31185713921E+03  0.17300000000E+03 0.  1.
         -6    1    1    2    0  503  0.97990886089E+02  0.19079373968E+03  0.45806173532E+03  0.53455964889E+03  0.17300000000E+03 0. -1.
<mgrwt>
<rscale>  2 0.27556027E+03</rscale>
<asrwt>0</asrwt>
<pdfrwt beam="1">  1       21 0.11157669E+00 0.27556027E+03</pdfrwt>
<pdfrwt beam="2">  1       21 0.18641272E-01 0.27556027E+03</pdfrwt>
<totfact> 0.15841370E+04</totfact>
</mgrwt>
</event>
<event>
 4    1  0.4263413E+000  0.1883403E+03  0.7546771E-02  0.1159967E+00
         21   -1    0    0  503  502  0.00000000000E+00  0.00000000000E+00  0.57086017240E+02  0.57086017240E+02  0.00000000000E+00 0. -1.
         21   -1    0    0  501  503 -0.00000000000E+00 -0.00000000000E+00 -0.91448369657E+03  0.91448369657E+03  0.00000000000E+00 0. -1.
          6    1    1    2  501    0 -0.20401017706E+02  0.71602139327E+02 -0.70372067479E+03  0.72848806167E+03  0.17300000000E+03 0. -1.
         -6    1    1    2    0  502  0.20401017706E+02 -0.71602139327E+02 -0.15367700454E+03  0.24308165214E+03  0.17300000000E+03 0. -1.
<mgrwt>
<rscale>  2 0.18834030E+03</rscale>
<asrwt>0</asrwt>
<pdfrwt beam="1">  1       21 0.87824645E-02 0.18834030E+03</pdfrwt>
<pdfrwt beam="2">  1       21 0.14068980E+00 0.18834030E+03</pdfrwt>
<totfact> 0.36115194E+04</totfact>
</mgrwt>
</event>
<event>
 4    1  0.4263413E+000  0.2442134E+03  0.7546771E-02  0.1117017E+00
         21   -1    0    0  501  502  0.00000000000E+00  0.00000000000E+00  0.32409263234E+03  0.32409263234E+03  0.00000000000E+00 0. -1.
         21   -1    0    0  502  503 -0.00000000000E+00 -0.00000000000E+00 -0.21998282240E+03  0.21998282240E+03  0.00000000000E+00 0. -1.
          6    1    1    2  501    0  0.17139388501E+03 -0.18311854769E+02 -0.57934109344E+02  0.25099113305E+03  0.17300000000E+03 0. -1.
         -6    1    1    2    0  503 -0.17139388501E+03  0.18311854769E+02  0.16204391928E+03  0.29308432169E+03  0.17300000000E+03 0. -1.
<mgrwt>
<rscale>  2 0.24421341E+03</rscale>
<asrwt>0</asrwt>
<pdfrwt beam="1">  1       21 0.49860405E-01 0.24421341E+03</pdfrwt>
<pdfrwt beam="2">  1       21 0.33843511E-01 0.24421341E+03</pdfrwt>
<totfact> 0.31413638E+04</totfact>
</mgrwt>
</event>
<event>
 4    1  0.4263413E+000  0.1945137E+03  0.7546771E-02  0.1154452E+00
         21   -1    0    0  503  502  0.00000000000E+00  0.00000000000E+00  0.17646453023E+03  0.17646453023E+03  0.00000000000E+00 0. -1.
         21   -1    0    0  501  503 -0.00000000000E+00 -0.00000000000E+00 -0.47468255928E+03  0.47468255928E+03  0.00000000000E+00 0. -1.
          6    1    1    2  501    0  0.53297879099E+02 -0.71175350649E+02 -0.39018971464E+03  0.43598578860E+03  0.17300000000E+03 0. -1.
         -6    1    1    2    0  502 -0.53297879099E+02  0.71175350649E+02  0.91971685591E+02  0.21516130090E+03  0.17300000000E+03 0. -1.
<mgrwt>
<rscale>  2 0.19451374E+03</rscale>
<asrwt>0</asrwt>
<pdfrwt beam="1">  1       21 0.27148390E-01 0.19451374E+03</pdfrwt>
<pdfrwt beam="2">  1       21 0.73028085E-01 0.19451374E+03</pdfrwt>
<totfact> 0.21794923E+04</totfact>
</mgrwt>
</event>
<event>
 4    1  0.4263413E+000  0.2789503E+03  0.7546771E-02  0.1096264E+00
         21   -1    0    0  501  502  0.00000000000E+00  0.00000000000E+00  0.34239003529E+03  0.34239003529E+03  0.00000000000E+00 0.  1.
         21   -1    0    0  502  503 -0.00000000000E+00 -0.00000000000E+00 -0.32056495109E+03  0.32056495109E+03  0.00000000000E+00 0. -1.
          6    1    1    2  501    0  0.12359694985E+03 -0.18057697176E+03  0.18974110608E+03  0.33736469300E+03  0.17300000000E+03 0.  1.
         -6    1    1    2    0  503 -0.12359694985E+03  0.18057697176E+03 -0.16791602188E+03  0.32559029339E+03  0.17300000000E+03 0. -1.
<mgrwt>
<rscale>  2 0.27895026E+03</rscale>
<asrwt>0</asrwt>
<pdfrwt beam="1">  1       21 0.52675390E-01 0.27895026E+03</pdfrwt>
<pdfrwt beam="2">  1       21 0.49317684E-01 0.27895026E+03</pdfrwt>
<totfact> 0.12763933E+04</totfact>
</mgrwt>
</event>
<event>
 4    1  0.4263413E+000  0.1913992E+03  0.7546771E-02  0.1157205E+00
         21   -1    0    0  503  502  0.00000000000E+00  0.00000000000E+00  0.37028022953E+03  0.37028022953E+03  0.00000000000E+00 0.  1.
         21   -1    0    0  501  503 -0.00000000000E+00 -0.00000000000E+00 -0.41607910865E+03  0.41607910865E+03  0.00000000000E+00 0.  1.
          6    1    1    2  501    0  0.46659757484E+02 -0.67286989153E+02 -0.36616594328E+03  0.41317208267E+03  0.17300000000E+03 0.  1.
         -6    1    1    2    0  502 -0.46659757484E+02  0.67286989153E+02  0.32036706416E+03  0.37318725551E+03  0.17300000000E+03 0.  1.
<mgrwt>
<rscale>  2 0.19139925E+03</rscale>
<asrwt>0</asrwt>
<pdfrwt beam="1">  1       21 0.56966189E-01 0.19139925E+03</pdfrwt>
<pdfrwt beam="2">  1       21 0.64012170E-01 0.19139925E+03</pdfrwt>
<totfact> 0.65300084E+03</totfact>
</mgrwt>
</event>
<event>
 4    1  0.4263413E+000  0.2252220E+03  0.7546771E-02  0.1130049E+00
         21   -1    0    0  501  502  0.00000000000E+00  0.00000000000E+00  0.13353216141E+04  0.13353216141E+04  0.00000000000E+00 0.  1.
         21   -1    0    0  502  503 -0.00000000000E+00 -0.00000000000E+00 -0.21592753878E+03  0.21592753878E+03  0.00000000000E+00 0. -1.
          6    1    1    2  501    0 -0.85550057975E+02 -0.11609109902E+03  0.12637979540E+04  0.12837095561E+04  0.17300000000E+03 0.  1.
         -6    1    1    2    0  503  0.85550057975E+02  0.11609109902E+03 -0.14440387870E+03  0.26753959684E+03  0.17300000000E+03 0. -1.
<mgrwt>
<rscale>  2 0.22522201E+03</rscale>
<asrwt>0</asrwt>
<pdfrwt beam="1">  1       21 0.20543409E+00 0.22522201E+03</pdfrwt>
<pdfrwt beam="2">  1       21 0.33219622E-01 0.22522201E+03</pdfrwt>
<totfact> 0.10448701E+03</totfact>
</mgrwt>
</event>
<event>
 4    1  0.4263413E+000  0.2184440E+03  0.7546771E-02  0.1135048E+00
         21   -1    0    0  503  502  0.00000000000E+00  0.00000000000E+00  0.19289341846E+04  0.19289341846E+04  0.00000000000E+00 0.  1.
         21   -1    0    0  501  503 -0.00000000000E+00 -0.00000000000E+00 -0.25231881600E+02  0.25231881600E+02  0.00000000000E+00 0.  1.
          6    1    1    2  501    0 -0.25939758558E+02  0.13082770490E+03  0.81513590700E+03  0.84389827961E+03  0.17300000000E+03 0.  1.
         -6    1    1    2    0  502  0.25939758558E+02 -0.13082770490E+03  0.10885663960E+04  0.11102677866E+04  0.17300000000E+03 0.  1.
<mgrwt>
<rscale>  2 0.21844395E+03</rscale>
<asrwt>0</asrwt>
<pdfrwt beam="1">  1       21 0.29675899E+00 0.21844395E+03</pdfrwt>
<pdfrwt beam="2">  1       21 0.38818295E-02 0.21844395E+03</pdfrwt>
<totfact> 0.14316477E+04</totfact>
</mgrwt>
</event>
<event>
 4    1  0.4263413E+000  0.2307248E+03  0.7546771E-02  0.1126131E+00
         21   -1    0    0  501  502  0.00000000000E+00  0.00000000000E+00  0.62320426427E+02  0.62320426427E+02  0.00000000000E+00 0.  1.
         21   -1    0    0  502  503 -0.00000000000E+00 -0.00000000000E+00 -0.10768255794E+04  0.10768255794E+04  0.00000000000E+00 0.  1.
          6    1    1    2  501    0  0.15162983100E+03 -0.17700788094E+02 -0.24827203379E+03  0.33892908744E+03  0.17300000000E+03 0.  1.
         -6    1    1    2    0  503 -0.15162983100E+03  0.17700788094E+02 -0.76623311922E+03  0.80021691843E+03  0.17300000000E+03 0.  1.
<mgrwt>
<rscale>  2 0.23072478E+03</rscale>
<asrwt>0</asrwt>
<pdfrwt beam="1">  1       21 0.95877580E-02 0.23072478E+03</pdfrwt>
<pdfrwt beam="2">  1       21 0.16566547E+00 0.23072478E+03</pdfrwt>
<totfact> 0.19517269E+04</totfact>
</mgrwt>
</event>
<event>
 4    1  0.4263413E+000  0.1981928E+03  0.7546771E-02  0.1151273E+00
         21   -1    0    0  501  502  0.00000000000E+00  0.00000000000E+00  0.11875407983E+03  0.11875407983E+03  0.00000000000E+00 0.  1.
         21   -1    0    0  502  503 -0.00000000000E+00 -0.00000000000E+00 -0.47800660404E+03  0.47800660404E+03  0.00000000000E+00 0.  1.
          6    1    1    2  501    0  0.96700718827E+02 -0.58715979171E+00 -0.14026359482E+02  0.19868848114E+03  0.17300000000E+03 0.  1.
         -6    1    1    2    0  503 -0.96700718827E+02  0.58715979171E+00 -0.34522616472E+03  0.39807220273E+03  0.17300000000E+03 0.  1.
<mgrwt>
<rscale>  2 0.19819277E+03</rscale>
<asrwt>0</asrwt>
<pdfrwt beam="1">  1       21 0.18269858E-01 0.19819277E+03</pdfrwt>
<pdfrwt beam="2">  1       21 0.73539478E-01 0.19819277E+03</pdfrwt>
<totfact> 0.45244275E+04</totfact>
</mgrwt>
</event>
<event>
 4    1  0.4263413E+000  0.3382883E+03  0.7546771E-02  0.1067527E+00
         21   -1    0    0  501  502  0.00000000000E+00  0.00000000000E+00  0.81018915034E+03  0.81018915034E+03  0.00000000000E+00 0.  1.
         21   -1    0    0  502  503 -0.00000000000E+00 -0.00000000000E+00 -0.16187139742E+03  0.16187139742E+03  0.00000000000E+00 0.  1.
          6    1    1    2  501    0 -0.14725151978E+03  0.25065307691E+03  0.49763530023E+03  0.60173072639E+03  0.17300000000E+03 0.  1.
         -6    1    1    2    0  503  0.14725151978E+03 -0.25065307691E+03  0.15068245269E+03  0.37032982136E+03  0.17300000000E+03 0.  1.
<mgrwt>
<rscale>  2 0.33828830E+03</rscale>
<asrwt>0</asrwt>
<pdfrwt beam="1">  1       21 0.12464448E+00 0.33828830E+03</pdfrwt>
<pdfrwt beam="2">  1       21 0.24903292E-01 0.33828830E+03</pdfrwt>
<totfact> 0.67287416E+03</totfact>
</mgrwt>
</event>
<event>
 4    1  0.4263413E+000  0.1804711E+03  0.7546771E-02  0.1167348E+00
         21   -1    0    0  501  502  0.00000000000E+00  0.00000000000E+00  0.18575073099E+03  0.18575073099E+03  0.00000000000E+00 0.  1.
         21   -1    0    0  502  503 -0.00000000000E+00 -0.00000000000E+00 -0.35509849329E+03  0.35509849329E+03  0.00000000000E+00 0. -1.
          6    1    1    2  501    0  0.58956580647E+01  0.51049404277E+02  0.10773041809E+03  0.21018002627E+03  0.17300000000E+03 0.  1.
         -6    1    1    2    0  503 -0.58956580647E+01 -0.51049404277E+02 -0.27707818039E+03  0.33066919801E+03  0.17300000000E+03 0. -1.
<mgrwt>
<rscale>  2 0.18047105E+03</rscale>
<asrwt>0</asrwt>
<pdfrwt beam="1">  1       21 0.28577036E-01 0.18047105E+03</pdfrwt>
<pdfrwt beam="2">  1       21 0.54630537E-01 0.18047105E+03</pdfrwt>
<totfact> 0.37286926E+04</totfact>
</mgrwt>
</event>
<event>
 4    1  0.4263413E+000  0.1774202E+03  0.7546771E-02  0.1170323E+00
         21   -1    0    0  501  502  0.00000000000E+00  0.00000000000E+00  0.42253060752E+03  0.42253060752E+03  0.00000000000E+00 0. -1.
         21   -1    0    0  502  503 -0.00000000000E+00 -0.00000000000E+00 -0.12779964830E+03  0.12779964830E+03  0.00000000000E+00 0. -1.
          6    1    1    2  501    0  0.16359278512E+02  0.35795197503E+02  0.32506923259E+03  0.37033488646E+03  0.17300000000E+03 0. -1.
         -6    1    1    2    0  503 -0.16359278512E+02 -0.35795197503E+02 -0.30338273373E+02  0.17999536935E+03  0.17300000000E+03 0. -1.
<mgrwt>
<rscale>  2 0.17742019E+03</rscale>
<asrwt>0</asrwt>
<pdfrwt beam="1">  1       21 0.65004708E-01 0.17742019E+03</pdfrwt>
<pdfrwt beam="2">  1       21 0.19661485E-01 0.17742019E+03</pdfrwt>
<totfact> 0.52305222E+04</totfact>
</mgrwt>
</event>
<event>
 4    1  0.4263413E+000  0.2149175E+03  0.7546771E-02  0.1137730E+00
         21   -1    0    0  503  502  0.00000000000E+00  0.00000000000E+00  0.97180378448E+03  0.97180378448E+03  0.00000000000E+00 0. -1.
         21   -1    0    0  501  503 -0.00000000000E+00 -0.00000000000E+00 -0.55091438186E+02  0.55091438186E+02  0.00000000000E+00 0. -1.
          6    1    1    2  501    0  0.12751602281E+03  0.42734070270E+00  0.26813204616E+03  0.34363398097E+03  0.17300000000E+03 0. -1.
         -6    1    1    2    0  502 -0.12751602281E+03 -0.42734070270E+00  0.64858030013E+03  0.68326124170E+03  0.17300000000E+03 0. -1.
<mgrwt>
<rscale>  2 0.21491747E+03</rscale>
<asrwt>0</asrwt>
<pdfrwt beam="1">  1       21 0.14950826E+00 0.21491747E+03</pdfrwt>
<pdfrwt beam="2">  1       21 0.84756066E-02 0.21491747E+03</pdfrwt>
<totfact> 0.32276070E+04</totfact>
</mgrwt>
</event>
<event>
 4    1  0.4263413E+000  0.3092397E+03  0.7546771E-02  0.1080711E+00
         21   -1    0    0  503  502  0.00000000000E+00  0.00000000000E+00  0.27877148495E+03  0.27877148495E+03  0.00000000000E+00 0. -1.
         21   -1    0    0  501  503 -0.00000000000E+00 -0.00000000000E+00 -0.46254939354E+03  0.46254939354E+03  0.00000000000E+00 0. -1.
          6    1    1    2  501    0 -0.24485054699E+03  0.75818216960E+02 -0.28029809353E+03  0.41736819910E+03  0.17300000000E+03 0. -1.
         -6    1    1    2    0  502  0.24485054699E+03 -0.75818216960E+02  0.96520184937E+02  0.32395267939E+03  0.17300000000E+03 0. -1.
<mgrwt>
<rscale>  2 0.30923970E+03</rscale>
<asrwt>0</asrwt>
<pdfrwt beam="1">  1       21 0.42887922E-01 0.30923970E+03</pdfrwt>
<pdfrwt beam="2">  1       21 0.71161444E-01 0.30923970E+03</pdfrwt>
<totfact> 0.87445498E+03</totfact>
</mgrwt>
</event>
<event>
 4    1  0.4263413E+000  0.1755183E+03  0.7546771E-02  0.1172212E+00
         21   -1    0    0  503  502  0.00000000000E+00  0.00000000000E+00  0.13340357705E+04  0.13340357705E+04  0.00000000000E+00 0. -1.
         21   -1    0    0  501  503 -0.00000000000E+00 -0.00000000000E+00 -0.32973742233E+02  0.32973742233E+02  0.00000000000E+00 0. -1.
          6    1    1    2  501    0 -0.32449523987E+00  0.29623549476E+02  0.27637221438E+03  0.32739618334E+03  0.17300000000E+03 0. -1.
         -6    1    1    2    0  502  0.32449523987E+00 -0.29623549476E+02  0.10246898139E+04  0.10396133294E+04  0.17300000000E+03 0. -1.
<mgrwt>
<rscale>  2 0.17551826E+03</rscale>
<asrwt>0</asrwt>
<pdfrwt beam="1">  1       21 0.20523623E+00 0.17551826E+03</pdfrwt>
<pdfrwt beam="2">  1       21 0.50728845E-02 0.17551826E+03</pdfrwt>
<totfact> 0.33044193E+04</totfact>
</mgrwt>
</event>
<event>
 4    1  0.4263413E+000  0.3336902E+03  0.7546771E-02  0.1069516E+00
         21   -1    0    0  501  502  0.00000000000E+00  0.00000000000E+00  0.78208346241E+03  0.78208346241E+03  0.00000000000E+00 0.  1.
         21   -1    0    0  502  503 -0.00000000000E+00 -0.00000000000E+00 -0.16861651789E+03  0.16861651789E+03  0.00000000000E+00 0. -1.
          6    1    1    2  501    0  0.17743564932E+03  0.22346535760E+03  0.49425772999E+03  0.59635549746E+03  0.17300000000E+03 0.  1.
         -6    1    1    2    0  503 -0.17743564932E+03 -0.22346535760E+03  0.11920921453E+03  0.35434448285E+03  0.17300000000E+03 0. -1.
<mgrwt>
<rscale>  2 0.33369024E+03</rscale>
<asrwt>0</asrwt>
<pdfrwt beam="1">  1       21 0.12032053E+00 0.33369024E+03</pdfrwt>
<pdfrwt beam="2">  1       21 0.25941003E-01 0.33369024E+03</pdfrwt>
<totfact> 0.68139003E+03</totfact>
</mgrwt>
</event>
<event>
 4    1  0.4263413E+000  0.2560950E+03  0.7546771E-02  0.1109512E+00
         21   -1    0    0  501  502  0.00000000000E+00  0.00000000000E+00  0.36582186438E+03  0.36582186438E+03  0.00000000000E+00 0. -1.
         21   -1    0    0  502  503 -0.00000000000E+00 -0.00000000000E+00 -0.18006540139E+03  0.18006540139E+03  0.00000000000E+00 0.  1.
          6    1    1    2  501    0  0.15699934793E+03  0.10491350923E+03  0.74855059322E+02  0.26681064367E+03  0.17300000000E+03 0.  1.
         -6    1    1    2    0  503 -0.15699934793E+03 -0.10491350923E+03  0.11090140367E+03  0.27907662211E+03  0.17300000000E+03 0.  1.
<mgrwt>
<rscale>  2 0.25609498E+03</rscale>
<asrwt>0</asrwt>
<pdfrwt beam="1">  1       21 0.56280287E-01 0.25609498E+03</pdfrwt>
<pdfrwt beam="2">  1       21 0.27702370E-01 0.25609498E+03</pdfrwt>
<totfact> 0.35850099E+04</totfact>
</mgrwt>
</event>
<event>
 4    1  0.4263413E+000  0.1733204E+03  0.7546771E-02  0.1174429E+00
         21   -1    0    0  501  502  0.00000000000E+00  0.00000000000E+00  0.42718446811E+03  0.42718446811E+03  0.00000000000E+00 0. -1.
         21   -1    0    0  502  503 -0.00000000000E+00 -0.00000000000E+00 -0.16284334569E+03  0.16284334569E+03  0.00000000000E+00 0. -1.
          6    1    1    2  501    0 -0.12154334490E+01 -0.10463841602E+02  0.35454311372E+03  0.39464007494E+03  0.17300000000E+03 0. -1.
         -6    1    1    2    0  503  0.12154334490E+01  0.10463841602E+02 -0.90201991305E+02  0.19538773886E+03  0.17300000000E+03 0. -1.
<mgrwt>
<rscale>  2 0.17332042E+03</rscale>
<asrwt>0</asrwt>
<pdfrwt beam="1">  1       21 0.65720687E-01 0.17332042E+03</pdfrwt>
<pdfrwt beam="2">  1       21 0.25052823E-01 0.17332042E+03</pdfrwt>
<totfact> 0.32437428E+04</totfact>
</mgrwt>
</event>
<event>
 4    1  0.4263413E+000  0.1969535E+03  0.7546771E-02  0.1152335E+00
         21   -1    0    0  503  502  0.00000000000E+00  0.00000000000E+00  0.29638518167E+03  0.29638518167E+03  0.00000000000E+00 0.  1.
         21   -1    0    0  501  503 -0.00000000000E+00 -0.00000000000E+00 -0.14493958284E+03  0.14493958284E+03  0.00000000000E+00 0.  1.
          6    1    1    2  501    0 -0.33977811261E+02  0.87790624656E+02  0.14445049944E+03  0.24424707209E+03  0.17300000000E+03 0.  1.
         -6    1    1    2    0  502  0.33977811261E+02 -0.87790624656E+02  0.69950993857E+01  0.19707769242E+03  0.17300000000E+03 0.  1.
<mgrwt>
<rscale>  2 0.19695351E+03</rscale>
<asrwt>0</asrwt>
<pdfrwt beam="1">  1       21 0.45597720E-01 0.19695351E+03</pdfrwt>
<pdfrwt beam="2">  1       21 0.22298397E-01 0.19695351E+03</pdfrwt>
<totfact> 0.86634410E+04</totfact>
</mgrwt>
</event>
<event>
 4    1  0.4263413E+000  0.2647968E+03  0.7546771E-02  0.1104295E+00
         21   -1    0    0  501  502  0.00000000000E+00  0.00000000000E+00  0.19387173868E+04  0.19387173868E+04  0.00000000000E+00 0.  1.
         21   -1    0    0  502  503 -0.00000000000E+00 -0.00000000000E+00 -0.45867164566E+02  0.45867164566E+02  0.00000000000E+00 0. -1.
          6    1    1    2  501    0 -0.86811053875E+02 -0.18069911458E+03  0.49009277150E+03  0.55705318755E+03  0.17300000000E+03 0. -1.
         -6    1    1    2    0  503  0.86811053875E+02  0.18069911458E+03  0.14027574507E+04  0.14275313638E+04  0.17300000000E+03 0.  1.
<mgrwt>
<rscale>  2 0.26479677E+03</rscale>
<asrwt>0</asrwt>
<pdfrwt beam="1">  1       21 0.29826415E+00 0.26479677E+03</pdfrwt>
<pdfrwt beam="2">  1       21 0.70564884E-02 0.26479677E+03</pdfrwt>
<totfact> 0.48520278E+03</totfact>
</mgrwt>
</event>
<event>
 4    1  0.4263413E+000  0.1810006E+03  0.7546771E-02  0.1166838E+00
         21   -1    0    0  503  502  0.00000000000E+00  0.00000000000E+00  0.25667938378E+03  0.25667938378E+03  0.00000000000E+00 0.  1.
         21   -1    0    0  501  503 -0.00000000000E+00 -0.00000000000E+00 -0.12857383395E+03  0.12857383395E+03  0.00000000000E+00 0.  1.
          6    1    1    2  501    0 -0.21287279550E+02 -0.48775857777E+02  0.47591216968E+02  0.18715276248E+03  0.17300000000E+03 0.  1.
         -6    1    1    2    0  502  0.21287279550E+02  0.48775857777E+02  0.80514332856E+02  0.19810045524E+03  0.17300000000E+03 0.  1.
<mgrwt>
<rscale>  2 0.18100064E+03</rscale>
<asrwt>0</asrwt>
<pdfrwt beam="1">  1       21 0.39489136E-01 0.18100064E+03</pdfrwt>
<pdfrwt beam="2">  1       21 0.19780590E-01 0.18100064E+03</pdfrwt>
<totfact> 0.14621874E+05</totfact>
</mgrwt>
</event>
<event>
 4    1  0.4263413E+000  0.1780273E+03  0.7546771E-02  0.1169726E+00
         21   -1    0    0  501  502  0.00000000000E+00  0.00000000000E+00  0.24943880054E+02  0.24943880054E+02  0.00000000000E+00 0.  1.
         21   -1    0    0  502  503 -0.00000000000E+00 -0.00000000000E+00 -0.15632634669E+04  0.15632634669E+04  0.00000000000E+00 0.  1.
          6    1    1    2  501    0  0.55668096373E+01  0.41638254562E+02 -0.42556688328E+03  0.46130348552E+03  0.17300000000E+03 0.  1.
         -6    1    1    2    0  503 -0.55668096373E+01 -0.41638254562E+02 -0.11127527036E+04  0.11269038614E+04  0.17300000000E+03 0.  1.
<mgrwt>
<rscale>  2 0.17802734E+03</rscale>
<asrwt>0</asrwt>
<pdfrwt beam="1">  1       21 0.38375199E-02 0.17802734E+03</pdfrwt>
<pdfrwt beam="2">  1       21 0.24050208E+00 0.17802734E+03</pdfrwt>
<totfact> 0.32163940E+04</totfact>
</mgrwt>
</event>
<event>
 4    1  0.4263413E+000  0.1810855E+03  0.7546771E-02  0.1166757E+00
         21   -1    0    0  503  502  0.00000000000E+00  0.00000000000E+00  0.12136857042E+03  0.12136857042E+03  0.00000000000E+00 0.  1.
         21   -1    0    0  501  503 -0.00000000000E+00 -0.00000000000E+00 -0.42474944358E+03  0.42474944358E+03  0.00000000000E+00 0.  1.
          6    1    1    2  501    0  0.34126934776E+02  0.41210359549E+02 -0.31641000402E+03  0.36456444157E+03  0.17300000000E+03 0.  1.
         -6    1    1    2    0  502 -0.34126934776E+02 -0.41210359549E+02  0.13029130858E+02  0.18155357243E+03  0.17300000000E+03 0.  1.
<mgrwt>
<rscale>  2 0.18108545E+03</rscale>
<asrwt>0</asrwt>
<pdfrwt beam="1">  1       21 0.18672088E-01 0.18108545E+03</pdfrwt>
<pdfrwt beam="2">  1       21 0.65346068E-01 0.18108545E+03</pdfrwt>
<totfact> 0.56817998E+04</totfact>
</mgrwt>
</event>
<event>
 4    1  0.4263413E+000  0.2046566E+03  0.7546771E-02  0.1145869E+00
         21   -1    0    0  503  502  0.00000000000E+00  0.00000000000E+00  0.13455658438E+03  0.13455658438E+03  0.00000000000E+00 0.  1.
         21   -1    0    0  501  503 -0.00000000000E+00 -0.00000000000E+00 -0.31561525391E+03  0.31561525391E+03  0.00000000000E+00 0. -1.
          6    1    1    2  501    0 -0.10828304321E+03 -0.15169526347E+02 -0.64139241141E+02  0.21447184951E+03  0.17300000000E+03 0. -1.
         -6    1    1    2    0  502  0.10828304321E+03  0.15169526347E+02 -0.11691942839E+03  0.23569998879E+03  0.17300000000E+03 0.  1.
<mgrwt>
<rscale>  2 0.20465662E+03</rscale>
<asrwt>0</asrwt>
<pdfrwt beam="1">  1       21 0.20701013E-01 0.20465662E+03</pdfrwt>
<pdfrwt beam="2">  1       21 0.48556193E-01 0.20465662E+03</pdfrwt>
<totfact> 0.87208147E+04</totfact>
</mgrwt>
</event>
<event>
 4    1  0.4263413E+000  0.3739882E+03  0.7546771E-02  0.1053178E+00
         21   -1    0    0  501  502  0.00000000000E+00  0.00000000000E+00  0.85183454595E+03  0.85183454595E+03  0.00000000000E+00 0.  1.
         21   -1    0    0  502  503 -0.00000000000E+00 -0.00000000000E+00 -0.17120918882E+03  0.17120918882E+03  0.00000000000E+00 0. -1.
          6    1    1    2  501    0  0.29687045891E+03  0.14766896323E+03  0.44384630919E+03  0.58040222110E+03  0.17300000000E+03 0.  1.
         -6    1    1    2    0  503 -0.29687045891E+03 -0.14766896323E+03  0.23677904795E+03  0.44264151367E+03  0.17300000000E+03 0. -1.
<mgrwt>
<rscale>  2 0.37398822E+03</rscale>
<asrwt>0</asrwt>
<pdfrwt beam="1">  1       21 0.13105147E+00 0.37398822E+03</pdfrwt>
<pdfrwt beam="2">  1       21 0.26339876E-01 0.37398822E+03</pdfrwt>
<totfact> 0.52258049E+03</totfact>
</mgrwt>
</event>
<event>
 4    1  0.4263413E+000  0.2221863E+03  0.7546771E-02  0.1132264E+00
         21   -1    0    0  503  502  0.00000000000E+00  0.00000000000E+00  0.98030219639E+03  0.98030219639E+03  0.00000000000E+00 0.  1.
         21   -1    0    0  501  503 -0.00000000000E+00 -0.00000000000E+00 -0.11873474316E+03  0.11873474316E+03  0.00000000000E+00 0. -1.
          6    1    1    2  501    0 -0.10092288237E+03  0.96188894324E+02  0.13774745058E+02  0.22261283696E+03  0.17300000000E+03 0. -1.
         -6    1    1    2    0  502  0.10092288237E+03 -0.96188894324E+02  0.84779270817E+03  0.87642410259E+03  0.17300000000E+03 0.  1.
<mgrwt>
<rscale>  2 0.22218625E+03</rscale>
<asrwt>0</asrwt>
<pdfrwt beam="1">  1       21 0.15081572E+00 0.22218625E+03</pdfrwt>
<pdfrwt beam="2">  1       21 0.18266884E-01 0.22218625E+03</pdfrwt>
<totfact> 0.78728683E+03</totfact>
</mgrwt>
</event>
<event>
 4    1  0.4263413E+000  0.2468017E+03  0.7546771E-02  0.1115343E+00
         21   -1    0    0  501  502  0.00000000000E+00  0.00000000000E+00  0.36131968516E+03  0.36131968516E+03  0.00000000000E+00 0.  1.
         21   -1    0    0  502  503 -0.00000000000E+00 -0.00000000000E+00 -0.23130053642E+03  0.23130053642E+03  0.00000000000E+00 0. -1.
          6    1    1    2  501    0 -0.17601729198E+03  0.11128344041E+00  0.21930913564E+03  0.33016298465E+03  0.17300000000E+03 0.  1.
         -6    1    1    2    0  503  0.17601729198E+03 -0.11128344041E+00 -0.89289986899E+02  0.26245723693E+03  0.17300000000E+03 0. -1.
<mgrwt>
<rscale>  2 0.24680174E+03</rscale>
<asrwt>0</asrwt>
<pdfrwt beam="1">  1       21 0.55587644E-01 0.24680174E+03</pdfrwt>
<pdfrwt beam="2">  1       21 0.35584698E-01 0.24680174E+03</pdfrwt>
<totfact> 0.22558356E+04</totfact>
</mgrwt>
</event>
<event>
 4    1  0.4263413E+000  0.1959946E+03  0.7546771E-02  0.1153163E+00
         21   -1    0    0  503  502  0.00000000000E+00  0.00000000000E+00  0.95333655579E+02  0.95333655579E+02  0.00000000000E+00 0.  1.
         21   -1    0    0  501  503 -0.00000000000E+00 -0.00000000000E+00 -0.41974034197E+03  0.41974034197E+03  0.00000000000E+00 0.  1.
          6    1    1    2  501    0  0.40903725869E+02 -0.82533518880E+02 -0.21372472987E+03  0.28998647673E+03  0.17300000000E+03 0.  1.
         -6    1    1    2    0  502 -0.40903725869E+02  0.82533518880E+02 -0.11068195652E+03  0.22508752082E+03  0.17300000000E+03 0.  1.
<mgrwt>
<rscale>  2 0.19599463E+03</rscale>
<asrwt>0</asrwt>
<pdfrwt beam="1">  1       21 0.14666716E-01 0.19599463E+03</pdfrwt>
<pdfrwt beam="2">  1       21 0.64575437E-01 0.19599463E+03</pdfrwt>
<totfact> 0.90219315E+04</totfact>
</mgrwt>
</event>
<event>
 4    1  0.4263413E+000  0.2003738E+03  0.7546771E-02  0.1149424E+00
         21   -1    0    0  501  502  0.00000000000E+00  0.00000000000E+00  0.98429029756E+02  0.98429029756E+02  0.00000000000E+00 0.  1.
         21   -1    0    0  502  503 -0.00000000000E+00 -0.00000000000E+00 -0.59294221827E+03  0.59294221827E+03  0.00000000000E+00 0. -1.
          6    1    1    2  501    0  0.80026641433E+00  0.10109413392E+03 -0.54146478672E+02  0.20756084769E+03  0.17300000000E+03 0.  1.
         -6    1    1    2    0  503 -0.80026641433E+00 -0.10109413392E+03 -0.44036670985E+03  0.48381040034E+03  0.17300000000E+03 0. -1.
<mgrwt>
<rscale>  2 0.20037381E+03</rscale>
<asrwt>0</asrwt>
<pdfrwt beam="1">  1       21 0.15142928E-01 0.20037381E+03</pdfrwt>
<pdfrwt beam="2">  1       21 0.91221879E-01 0.20037381E+03</pdfrwt>
<totfact> 0.39098032E+04</totfact>
</mgrwt>
</event>
<event>
 4    1  0.4263413E+000  0.1865507E+03  0.7546771E-02  0.1161610E+00
         21   -1    0    0  503  502  0.00000000000E+00  0.00000000000E+00  0.35573811309E+03  0.35573811309E+03  0.00000000000E+00 0.  1.
         21   -1    0    0  501  503 -0.00000000000E+00 -0.00000000000E+00 -0.16555768669E+03  0.16555768669E+03  0.00000000000E+00 0.  1.
          6    1    1    2  501    0  0.23219652837E+02  0.65825487924E+02 -0.71622645085E+02  0.19982730151E+03  0.17300000000E+03 0.  1.
         -6    1    1    2    0  502 -0.23219652837E+02 -0.65825487924E+02  0.26180307149E+03  0.32146849827E+03  0.17300000000E+03 0.  1.
<mgrwt>
<rscale>  2 0.18655066E+03</rscale>
<asrwt>0</asrwt>
<pdfrwt beam="1">  1       21 0.54728940E-01 0.18655066E+03</pdfrwt>
<pdfrwt beam="2">  1       21 0.25470413E-01 0.18655066E+03</pdfrwt>
<totfact> 0.46206081E+04</totfact>
</mgrwt>
</event>
<event>
 4    1  0.4263413E+000  0.1767843E+03  0.7546771E-02  0.1170952E+00
         21   -1    0    0  503  502  0.00000000000E+00  0.00000000000E+00  0.11709039659E+03  0.11709039659E+03  0.00000000000E+00 0.  1.
         21   -1    0    0  501  503 -0.00000000000E+00 -0.00000000000E+00 -0.35729323738E+03  0.35729323738E+03  0.00000000000E+00 0.  1.
          6    1    1    2  501    0 -0.31678305515E+02 -0.17893143488E+02 -0.23939843359E+03  0.29759752961E+03  0.17300000000E+03 0.  1.
         -6    1    1    2    0  502  0.31678305515E+02  0.17893143488E+02 -0.80440719097E+00  0.17678610436E+03  0.17300000000E+03 0.  1.
<mgrwt>
<rscale>  2 0.17678427E+03</rscale>
<asrwt>0</asrwt>
<pdfrwt beam="1">  1       21 0.18013907E-01 0.17678427E+03</pdfrwt>
<pdfrwt beam="2">  1       21 0.54968190E-01 0.17678427E+03</pdfrwt>
<totfact> 0.88112475E+04</totfact>
</mgrwt>
</event>
<event>
 4    1  0.4263413E+000  0.2941491E+03  0.7546771E-02  0.1088203E+00
         21   -1    0    0  503  502  0.00000000000E+00  0.00000000000E+00  0.15418294378E+04  0.15418294378E+04  0.00000000000E+00 0. -1.
         21   -1    0    0  501  503 -0.00000000000E+00 -0.00000000000E+00 -0.58514198944E+02  0.58514198944E+02  0.00000000000E+00 0.  1.
          6    1    1    2  501    0 -0.17511025433E+03 -0.16103141398E+03  0.57971794884E+03  0.65007431703E+03  0.17300000000E+03 0.  1.
         -6    1    1    2    0  502  0.17511025433E+03  0.16103141398E+03  0.90359728998E+03  0.95026931967E+03  0.17300000000E+03 0. -1.
<mgrwt>
<rscale>  2 0.29414914E+03</rscale>
<asrwt>0</asrwt>
<pdfrwt beam="1">  1       21 0.23720450E+00 0.29414914E+03</pdfrwt>
<pdfrwt beam="2">  1       21 0.90021856E-02 0.29414914E+03</pdfrwt>
<totfact> 0.71384095E+03</totfact>
</mgrwt>
</event>
<event>
 4    1  0.4263413E+000  0.1788707E+03  0.7546771E-02  0.1168900E+00
         21   -1    0    0  503  502  0.00000000000E+00  0.00000000000E+00  0.24973574959E+03  0.24973574959E+03  0.00000000000E+00 0. -1.
         21   -1    0    0  501  503 -0.00000000000E+00 -0.00000000000E+00 -0.21951135639E+03  0.21951135639E+03  0.00000000000E+00 0. -1.
          6    1    1    2  501    0  0.33212932786E+02 -0.31026374278E+02  0.16650634212E+03  0.24437491027E+03  0.17300000000E+03 0.  1.
         -6    1    1    2    0  502 -0.33212932786E+02  0.31026374278E+02 -0.13628194892E+03  0.22487219571E+03  0.17300000000E+03 0.  1.
<mgrwt>
<rscale>  2 0.17887072E+03</rscale>
<asrwt>0</asrwt>
<pdfrwt beam="1">  1       21 0.38420884E-01 0.17887072E+03</pdfrwt>
<pdfrwt beam="2">  1       21 0.33770978E-01 0.17887072E+03</pdfrwt>
<totfact> 0.55526933E+04</totfact>
</mgrwt>
</event>
<event>
 4    1  0.4263413E+000  0.2770475E+03  0.7546771E-02  0.1097313E+00
         21   -1    0    0  501  502  0.00000000000E+00  0.00000000000E+00  0.21701673371E+03  0.21701673371E+03  0.00000000000E+00 0. -1.
         21   -1    0    0  502  503 -0.00000000000E+00 -0.00000000000E+00 -0.35828143986E+03  0.35828143986E+03  0.00000000000E+00 0. -1.
          6    1    1    2  501    0 -0.18936549949E+03 -0.10472367136E+03 -0.38047907790E+02  0.27964796267E+03  0.17300000000E+03 0. -1.
         -6    1    1    2    0  503  0.18936549949E+03  0.10472367136E+03 -0.10321679835E+03  0.29565021090E+03  0.17300000000E+03 0. -1.
<mgrwt>
<rscale>  2 0.27704754E+03</rscale>
<asrwt>0</asrwt>
<pdfrwt beam="1">  1       21 0.33387190E-01 0.27704754E+03</pdfrwt>
<pdfrwt beam="2">  1       21 0.55120221E-01 0.27704754E+03</pdfrwt>
<totfact> 0.25737461E+04</totfact>
</mgrwt>
</event>
<event>
 4    1  0.4263413E+000  0.1965850E+03  0.7546771E-02  0.1152653E+00
         21   -1    0    0  501  502  0.00000000000E+00  0.00000000000E+00  0.16507763776E+03  0.16507763776E+03  0.00000000000E+00 0.  1.
         21   -1    0    0  502  503 -0.00000000000E+00 -0.00000000000E+00 -0.24777635534E+03  0.24777635534E+03  0.00000000000E+00 0.  1.
          6    1    1    2  501    0  0.92360293827E+02 -0.13647330770E+02  0.71376832910E+01  0.19671456488E+03  0.17300000000E+03 0.  1.
         -6    1    1    2    0  503 -0.92360293827E+02  0.13647330770E+02 -0.89836400869E+02  0.21613942823E+03  0.17300000000E+03 0.  1.
<mgrwt>
<rscale>  2 0.19658503E+03</rscale>
<asrwt>0</asrwt>
<pdfrwt beam="1">  1       21 0.25396560E-01 0.19658503E+03</pdfrwt>
<pdfrwt beam="2">  1       21 0.38119439E-01 0.19658503E+03</pdfrwt>
<totfact> 0.97393817E+04</totfact>
</mgrwt>
</event>
<event>
 4    1  0.4263413E+000  0.2672795E+03  0.7546771E-02  0.1102847E+00
         21   -1    0    0  501  502  0.00000000000E+00  0.00000000000E+00  0.11332111208E+04  0.11332111208E+04  0.00000000000E+00 0.  1.
         21   -1    0    0  502  503 -0.00000000000E+00 -0.00000000000E+00 -0.78258804739E+02  0.78258804739E+02  0.00000000000E+00 0. -1.
          6    1    1    2  501    0  0.14749499522E+03 -0.14055089348E+03  0.79459069096E+03  0.83833924722E+03  0.17300000000E+03 0.  1.
         -6    1    1    2    0  503 -0.14749499522E+03  0.14055089348E+03  0.26036162508E+03  0.37313067829E+03  0.17300000000E+03 0. -1.
<mgrwt>
<rscale>  2 0.26727949E+03</rscale>
<asrwt>0</asrwt>
<pdfrwt beam="1">  1       21 0.17434016E+00 0.26727949E+03</pdfrwt>
<pdfrwt beam="2">  1       21 0.12039817E-01 0.26727949E+03</pdfrwt>
<totfact> 0.11034411E+04</totfact>
</mgrwt>
</event>
<event>
 4    1  0.4263413E+000  0.1813920E+03  0.7546771E-02  0.1166463E+00
         21   -1    0    0  503  502  0.00000000000E+00  0.00000000000E+00  0.36746392950E+02  0.36746392950E+02  0.00000000000E+00 0. -1.
         21   -1    0    0  501  503 -0.00000000000E+00 -0.00000000000E+00 -0.10229464349E+04  0.10229464349E+04  0.00000000000E+00 0. -1.
          6    1    1    2  501    0 -0.62792527604E+01 -0.54172188586E+02 -0.68018641452E+03  0.70395782085E+03  0.17300000000E+03 0. -1.
         -6    1    1    2    0  502  0.62792527604E+01  0.54172188586E+02 -0.30601362739E+03  0.35573500696E+03  0.17300000000E+03 0. -1.
<mgrwt>
<rscale>  2 0.18139199E+03</rscale>
<asrwt>0</asrwt>
<pdfrwt beam="1">  1       21 0.56532911E-02 0.18139199E+03</pdfrwt>
<pdfrwt beam="2">  1       21 0.15737638E+00 0.18139199E+03</pdfrwt>
<totfact> 0.57801608E+04</totfact>
</mgrwt>
</event>
<event>
 4    1  0.4263413E+000  0.2487878E+03  0.7546771E-02  0.1114073E+00
         21   -1    0    0  503  502  0.00000000000E+00  0.00000000000E+00  0.30677190948E+03  0.30677190948E+03  0.00000000000E+00 0.  1.
         21   -1    0    0  501  503 -0.00000000000E+00 -0.00000000000E+00 -0.70972503264E+03  0.70972503264E+03  0.00000000000E+00 0. -1.
          6    1    1    2  501    0  0.79625342684E+02  0.16008176991E+03 -0.63145476404E+03  0.67869764055E+03  0.17300000000E+03 0. -1.
         -6    1    1    2    0  502 -0.79625342684E+02 -0.16008176991E+03  0.22850164088E+03  0.33779930157E+03  0.17300000000E+03 0.  1.
<mgrwt>
<rscale>  2 0.24878780E+03</rscale>
<asrwt>0</asrwt>
<pdfrwt beam="1">  1       21 0.47195679E-01 0.24878780E+03</pdfrwt>
<pdfrwt beam="2">  1       21 0.10918847E+00 0.24878780E+03</pdfrwt>
<totfact> 0.27325529E+03</totfact>
</mgrwt>
</event>
<event>
 4    1  0.4263413E+000  0.2187970E+03  0.7546771E-02  0.1134783E+00
         21   -1    0    0  501  502  0.00000000000E+00  0.00000000000E+00  0.86874982523E+03  0.86874982523E+03  0.00000000000E+00 0.  1.
         21   -1    0    0  502  503 -0.00000000000E+00 -0.00000000000E+00 -0.19402948080E+03  0.19402948080E+03  0.00000000000E+00 0.  1.
          6    1    1    2  501    0  0.50834569978E+02  0.12393132441E+03  0.78700460675E+03  0.81685272707E+03  0.17300000000E+03 0.  1.
         -6    1    1    2    0  503 -0.50834569978E+02 -0.12393132441E+03 -0.11228426232E+03  0.24592657896E+03  0.17300000000E+03 0.  1.
<mgrwt>
<rscale>  2 0.21879700E+03</rscale>
<asrwt>0</asrwt>
<pdfrwt beam="1">  1       21 0.13365382E+00 0.21879700E+03</pdfrwt>
<pdfrwt beam="2">  1       21 0.29850690E-01 0.21879700E+03</pdfrwt>
<totfact> 0.42449264E+03</totfact>
</mgrwt>
</event>
<event>
 4    1  0.4263413E+000  0.4804479E+03  0.7546771E-02  0.1019012E+00
         21   -1    0    0  503  502  0.00000000000E+00  0.00000000000E+00  0.23252427738E+04  0.23252427738E+04  0.00000000000E+00 0.  1.
         21   -1    0    0  501  503 -0.00000000000E+00 -0.00000000000E+00 -0.99591790318E+02  0.99591790318E+02  0.00000000000E+00 0. -1.
          6    1    1    2  501    0 -0.35490461982E+03 -0.27375891181E+03  0.11815866943E+04  0.12755302220E+04  0.17300000000E+03 0. -1.
         -6    1    1    2    0  502  0.35490461982E+03  0.27375891181E+03  0.10440642891E+04  0.11493043421E+04  0.17300000000E+03 0.  1.
<mgrwt>
<rscale>  2 0.48044795E+03</rscale>
<asrwt>0</asrwt>
<pdfrwt beam="1">  1       21 0.35772962E+00 0.48044795E+03</pdfrwt>
<pdfrwt beam="2">  1       21 0.15321816E-01 0.48044795E+03</pdfrwt>
<totfact> 0.45621426E+02</totfact>
</mgrwt>
</event>
<event>
 4    1  0.4263413E+000  0.2100262E+03  0.7546771E-02  0.1141545E+00
         21   -1    0    0  503  502  0.00000000000E+00  0.00000000000E+00  0.40737356134E+03  0.40737356134E+03  0.00000000000E+00 0. -1.
         21   -1    0    0  501  503 -0.00000000000E+00 -0.00000000000E+00 -0.31623034715E+03  0.31623034715E+03  0.00000000000E+00 0. -1.
          6    1    1    2  501    0 -0.56861471712E+02  0.10463638607E+03 -0.24781983769E+03  0.32484715207E+03  0.17300000000E+03 0. -1.
         -6    1    1    2    0  502  0.56861471712E+02 -0.10463638607E+03  0.33896305188E+03  0.39875675643E+03  0.17300000000E+03 0. -1.
<mgrwt>
<rscale>  2 0.21002619E+03</rscale>
<asrwt>0</asrwt>
<pdfrwt beam="1">  1       21 0.62672856E-01 0.21002619E+03</pdfrwt>
<pdfrwt beam="2">  1       21 0.48650823E-01 0.21002619E+03</pdfrwt>
<totfact> 0.94017826E+03</totfact>
</mgrwt>
</event>
<event>
 4    1  0.4263413E+000  0.2797209E+03  0.7546771E-02  0.1095841E+00
         21   -1    0    0  501  502  0.00000000000E+00  0.00000000000E+00  0.10227158740E+04  0.10227158740E+04  0.00000000000E+00 0. -1.
         21   -1    0    0  502  503 -0.00000000000E+00 -0.00000000000E+00 -0.77771342639E+02  0.77771342639E+02  0.00000000000E+00 0.  1.
          6    1    1    2  501    0  0.20879834430E+03 -0.68687795429E+02  0.54266183461E+03  0.61051259493E+03  0.17300000000E+03 0. -1.
         -6    1    1    2    0  503 -0.20879834430E+03  0.68687795429E+02  0.40228269680E+03  0.48997462176E+03  0.17300000000E+03 0.  1.
<mgrwt>
<rscale>  2 0.27972086E+03</rscale>
<asrwt>0</asrwt>
<pdfrwt beam="1">  1       21 0.15734089E+00 0.27972086E+03</pdfrwt>
<pdfrwt beam="2">  1       21 0.11964823E-01 0.27972086E+03</pdfrwt>
<totfact> 0.14723637E+04</totfact>
</mgrwt>
</event>
<event>
 4    1  0.4263413E+000  0.2041283E+03  0.7546771E-02  0.1146302E+00
         21   -1    0    0  503  502  0.00000000000E+00  0.00000000000E+00  0.13933426940E+03  0.13933426940E+03  0.00000000000E+00 0. -1.
         21   -1    0    0  501  503 -0.00000000000E+00 -0.00000000000E+00 -0.41675205081E+03  0.41675205081E+03  0.00000000000E+00 0.  1.
          6    1    1    2  501    0 -0.98210083986E+02  0.45761994218E+02 -0.28646966852E+03  0.35175737617E+03  0.17300000000E+03 0.  1.
         -6    1    1    2    0  502  0.98210083986E+02 -0.45761994218E+02  0.90518871130E+01  0.20432894404E+03  0.17300000000E+03 0. -1.
<mgrwt>
<rscale>  2 0.20412834E+03</rscale>
<asrwt>0</asrwt>
<pdfrwt beam="1">  1       21 0.21436042E-01 0.20412834E+03</pdfrwt>
<pdfrwt beam="2">  1       21 0.64115700E-01 0.20412834E+03</pdfrwt>
<totfact> 0.45251600E+04</totfact>
</mgrwt>
</event>
<event>
 4    1  0.4263413E+000  0.1829164E+03  0.7546771E-02  0.1165010E+00
         21   -1    0    0  501  502  0.00000000000E+00  0.00000000000E+00  0.11159376660E+04  0.11159376660E+04  0.00000000000E+00 0. -1.
         21   -1    0    0  502  503 -0.00000000000E+00 -0.00000000000E+00 -0.54751596938E+02  0.54751596938E+02  0.00000000000E+00 0. -1.
          6    1    1    2  501    0  0.23787186404E+01 -0.59361219751E+02  0.92429701924E+03  0.94222258118E+03  0.17300000000E+03 0. -1.
         -6    1    1    2    0  503 -0.23787186404E+01  0.59361219751E+02  0.13688904983E+03  0.22846668176E+03  0.17300000000E+03 0. -1.
<mgrwt>
<rscale>  2 0.18291641E+03</rscale>
<asrwt>0</asrwt>
<pdfrwt beam="1">  1       21 0.17168270E+00 0.18291641E+03</pdfrwt>
<pdfrwt beam="2">  1       21 0.84233234E-02 0.18291641E+03</pdfrwt>
<totfact> 0.22932126E+04</totfact>
</mgrwt>
</event>
<event>
 4    1  0.4263413E+000  0.1759527E+03  0.7546771E-02  0.1171779E+00
         21   -1    0    0  501  502  0.00000000000E+00  0.00000000000E+00  0.22500892546E+02  0.22500892546E+02  0.00000000000E+00 0. -1.
         21   -1    0    0  502  503 -0.00000000000E+00 -0.00000000000E+00 -0.15100144824E+04  0.15100144824E+04  0.00000000000E+00 0. -1.
          6    1    1    2  501    0 -0.16598972789E+02 -0.27473983559E+02 -0.97210398553E+03  0.98789954163E+03  0.17300000000E+03 0. -1.
         -6    1    1    2    0  503  0.16598972789E+02  0.27473983559E+02 -0.51540960436E+03  0.54461583336E+03  0.17300000000E+03 0. -1.
<mgrwt>
<rscale>  2 0.17595268E+03</rscale>
<asrwt>0</asrwt>
<pdfrwt beam="1">  1       21 0.34616747E-02 0.17595268E+03</pdfrwt>
<pdfrwt beam="2">  1       21 0.23230999E+00 0.17595268E+03</pdfrwt>
<totfact> 0.42796959E+04</totfact>
</mgrwt>
</event>
<event>
 4    1  0.4263413E+000  0.2619933E+03  0.7546771E-02  0.1105952E+00
         21   -1    0    0  501  502  0.00000000000E+00  0.00000000000E+00  0.29192299487E+03  0.29192299487E+03  0.00000000000E+00 0. -1.
         21   -1    0    0  502  503 -0.00000000000E+00 -0.00000000000E+00 -0.24401250788E+03  0.24401250788E+03  0.00000000000E+00 0.  1.
          6    1    1    2  501    0 -0.19674086342E+03  0.21217906600E+01  0.75075465850E+02  0.27253769447E+03  0.17300000000E+03 0. -1.
         -6    1    1    2    0  503  0.19674086342E+03 -0.21217906600E+01 -0.27164978858E+02  0.26339780829E+03  0.17300000000E+03 0.  1.
<mgrwt>
<rscale>  2 0.26199326E+03</rscale>
<asrwt>0</asrwt>
<pdfrwt beam="1">  1       21 0.44911230E-01 0.26199326E+03</pdfrwt>
<pdfrwt beam="2">  1       21 0.37540386E-01 0.26199326E+03</pdfrwt>
<totfact> 0.31489749E+04</totfact>
</mgrwt>
</event>
<event>
 4    1  0.4263413E+000  0.1755884E+03  0.7546771E-02  0.1172142E+00
         21   -1    0    0  503  502  0.00000000000E+00  0.00000000000E+00  0.10729952920E+04  0.10729952920E+04  0.00000000000E+00 0. -1.
         21   -1    0    0  501  503 -0.00000000000E+00 -0.00000000000E+00 -0.28996964012E+02  0.28996964012E+02  0.00000000000E+00 0. -1.
          6    1    1    2  501    0  0.29515611843E+02  0.55765090707E+01  0.57448683774E+03  0.60072156240E+03  0.17300000000E+03 0. -1.
         -6    1    1    2    0  502 -0.29515611843E+02 -0.55765090707E+01  0.46951149019E+03  0.50127069356E+03  0.17300000000E+03 0. -1.
<mgrwt>
<rscale>  2 0.17558835E+03</rscale>
<asrwt>0</asrwt>
<pdfrwt beam="1">  1       21 0.16507617E+00 0.17558835E+03</pdfrwt>
<pdfrwt beam="2">  1       21 0.44610722E-02 0.17558835E+03</pdfrwt>
<totfact> 0.76135739E+04</totfact>
</mgrwt>
</event>
<event>
 4    1  0.4263413E+000  0.2049571E+03  0.7546771E-02  0.1145623E+00
         21   -1    0    0  501  502  0.00000000000E+00  0.00000000000E+00  0.76839363285E+02  0.76839363285E+02  0.00000000000E+00 0. -1.
         21   -1    0    0  502  503 -0.00000000000E+00 -0.00000000000E+00 -0.71049220848E+03  0.71049220848E+03  0.00000000000E+00 0. -1.
          6    1    1    2  501    0 -0.68688468137E+01 -0.10968687899E+03 -0.50584587079E+03  0.54579065353E+03  0.17300000000E+03 0. -1.
         -6    1    1    2    0  503  0.68688468137E+01  0.10968687899E+03 -0.12780697441E+03  0.24154091824E+03  0.17300000000E+03 0. -1.
<mgrwt>
<rscale>  2 0.20495705E+03</rscale>
<asrwt>0</asrwt>
<pdfrwt beam="1">  1       21 0.11821441E-01 0.20495705E+03</pdfrwt>
<pdfrwt beam="2">  1       21 0.10930649E+00 0.20495705E+03</pdfrwt>
<totfact> 0.39705486E+04</totfact>
</mgrwt>
</event>
<event>
 4    1  0.4263413E+000  0.2148024E+03  0.7546771E-02  0.1137818E+00
         21   -1    0    0  503  502  0.00000000000E+00  0.00000000000E+00  0.71777736896E+03  0.71777736896E+03  0.00000000000E+00 0. -1.
         21   -1    0    0  501  503 -0.00000000000E+00 -0.00000000000E+00 -0.31918827294E+03  0.31918827294E+03  0.00000000000E+00 0. -1.
          6    1    1    2  501    0 -0.12547529722E+03  0.21610587081E+02 -0.26404704209E+03  0.34038347216E+03  0.17300000000E+03 0. -1.
         -6    1    1    2    0  502  0.12547529722E+03 -0.21610587081E+02  0.66263613810E+03  0.69658216974E+03  0.17300000000E+03 0. -1.
<mgrwt>
<rscale>  2 0.21480239E+03</rscale>
<asrwt>0</asrwt>
<pdfrwt beam="1">  1       21 0.11042729E+00 0.21480239E+03</pdfrwt>
<pdfrwt beam="2">  1       21 0.49105888E-01 0.21480239E+03</pdfrwt>
<totfact> 0.25113081E+03</totfact>
</mgrwt>
</event>
<event>
 4    1  0.4263413E+000  0.2102717E+03  0.7546771E-02  0.1141351E+00
         21   -1    0    0  503  502  0.00000000000E+00  0.00000000000E+00  0.56111948903E+02  0.56111948903E+02  0.00000000000E+00 0.  1.
         21   -1    0    0  501  503 -0.00000000000E+00 -0.00000000000E+00 -0.91182990955E+03  0.91182990955E+03  0.00000000000E+00 0.  1.
          6    1    1    2  501    0  0.11806932074E+03  0.18569280969E+02 -0.60623590133E+03  0.64166669756E+03  0.17300000000E+03 0.  1.
         -6    1    1    2    0  502 -0.11806932074E+03 -0.18569280969E+02 -0.24948205932E+03  0.32627516089E+03  0.17300000000E+03 0.  1.
<mgrwt>
<rscale>  2 0.21027169E+03</rscale>
<asrwt>0</asrwt>
<pdfrwt beam="1">  1       21 0.86326074E-02 0.21027169E+03</pdfrwt>
<pdfrwt beam="2">  1       21 0.14028153E+00 0.21027169E+03</pdfrwt>
<totfact> 0.37023839E+04</totfact>
</mgrwt>
</event>
<event>
 4    1  0.4263413E+000  0.2193277E+03  0.7546771E-02  0.1134385E+00
         21   -1    0    0  503  502  0.00000000000E+00  0.00000000000E+00  0.18838091364E+03  0.18838091364E+03  0.00000000000E+00 0.  1.
         21   -1    0    0  501  503 -0.00000000000E+00 -0.00000000000E+00 -0.30955646267E+03  0.30955646267E+03  0.00000000000E+00 0.  1.
          6    1    1    2  501    0  0.10918657829E+03  0.79081839124E+02 -0.16476354681E+03  0.27432038297E+03  0.17300000000E+03 0.  1.
         -6    1    1    2    0  502 -0.10918657829E+03 -0.79081839124E+02  0.43587997775E+02  0.22361699333E+03  0.17300000000E+03 0.  1.
<mgrwt>
<rscale>  2 0.21932771E+03</rscale>
<asrwt>0</asrwt>
<pdfrwt beam="1">  1       21 0.28981679E-01 0.21932771E+03</pdfrwt>
<pdfrwt beam="2">  1       21 0.47624071E-01 0.21932771E+03</pdfrwt>
<totfact> 0.47435951E+04</totfact>
</mgrwt>
</event>
<event>
 4    1  0.4263413E+000  0.1856075E+03  0.7546771E-02  0.1162484E+00
         21   -1    0    0  501  502  0.00000000000E+00  0.00000000000E+00  0.64913193815E+02  0.64913193815E+02  0.00000000000E+00 0. -1.
         21   -1    0    0  502  503 -0.00000000000E+00 -0.00000000000E+00 -0.55099097581E+03  0.55099097581E+03  0.00000000000E+00 0. -1.
          6    1    1    2  501    0 -0.63893931775E+02  0.20945746165E+02 -0.18395861561E+03  0.26132533566E+03  0.17300000000E+03 0.  1.
         -6    1    1    2    0  503  0.63893931775E+02 -0.20945746165E+02 -0.30211916639E+03  0.35457883397E+03  0.17300000000E+03 0.  1.
<mgrwt>
<rscale>  2 0.18560754E+03</rscale>
<asrwt>0</asrwt>
<pdfrwt beam="1">  1       21 0.99866454E-02 0.18560754E+03</pdfrwt>
<pdfrwt beam="2">  1       21 0.84767841E-01 0.18560754E+03</pdfrwt>
<totfact> 0.98349060E+04</totfact>
</mgrwt>
</event>
<event>
 4    1  0.4263413E+000  0.2793997E+03  0.7546771E-02  0.1096017E+00
         21   -1    0    0  503  502  0.00000000000E+00  0.00000000000E+00  0.35634380955E+03  0.35634380955E+03  0.00000000000E+00 0.  1.
         21   -1    0    0  501  503 -0.00000000000E+00 -0.00000000000E+00 -0.16278310892E+04  0.16278310892E+04  0.00000000000E+00 0.  1.
          6    1    1    2  501    0  0.19308938071E+03  0.10417140783E+03 -0.15586634763E+04  0.15835075066E+04  0.17300000000E+03 0.  1.
         -6    1    1    2    0  502 -0.19308938071E+03 -0.10417140783E+03  0.28717619668E+03  0.40066739210E+03  0.17300000000E+03 0.  1.
<mgrwt>
<rscale>  2 0.27939970E+03</rscale>
<asrwt>0</asrwt>
<pdfrwt beam="1">  1       21 0.54822124E-01 0.27939970E+03</pdfrwt>
<pdfrwt beam="2">  1       21 0.25043555E+00 0.27939970E+03</pdfrwt>
<totfact> 0.18711136E+02</totfact>
</mgrwt>
</event>
<event>
 4    1  0.4263413E+000  0.1909426E+03  0.7546771E-02  0.1157614E+00
         21   -1    0    0  501  502  0.00000000000E+00  0.00000000000E+00  0.11353629623E+03  0.11353629623E+03  0.00000000000E+00 0. -1.
         21   -1    0    0  502  503 -0.00000000000E+00 -0.00000000000E+00 -0.32191490341E+03  0.32191490341E+03  0.00000000000E+00 0. -1.
          6    1    1    2  501    0 -0.72775098921E+02 -0.35126094384E+02 -0.93387000304E+02  0.21255632043E+03  0.17300000000E+03 0. -1.
         -6    1    1    2    0  503  0.72775098921E+02  0.35126094384E+02 -0.11499160688E+03  0.22289487922E+03  0.17300000000E+03 0. -1.
<mgrwt>
<rscale>  2 0.19094255E+03</rscale>
<asrwt>0</asrwt>
<pdfrwt beam="1">  1       21 0.17467123E-01 0.19094255E+03</pdfrwt>
<pdfrwt beam="2">  1       21 0.49525369E-01 0.19094255E+03</pdfrwt>
<totfact> 0.11542947E+05</totfact>
</mgrwt>
</event>
<event>
 4    1  0.4263413E+000  0.2015870E+03  0.7546771E-02  0.1148407E+00
         21   -1    0    0  501  502  0.00000000000E+00  0.00000000000E+00  0.11903944279E+04  0.11903944279E+04  0.00000000000E+00 0. -1.
         21   -1    0    0  502  503 -0.00000000000E+00 -0.00000000000E+00 -0.63879066014E+02  0.63879066014E+02  0.00000000000E+00 0.  1.
          6    1    1    2  501    0  0.49584994624E+02 -0.90827546443E+02  0.99117858806E+03  0.10114703695E+04  0.17300000000E+03 0. -1.
         -6    1    1    2    0  503 -0.49584994624E+02  0.90827546443E+02  0.13533677380E+03  0.24280312442E+03  0.17300000000E+03 0.  1.
<mgrwt>
<rscale>  2 0.20158699E+03</rscale>
<asrwt>0</asrwt>
<pdfrwt beam="1">  1       21 0.18313759E+00 0.20158699E+03</pdfrwt>
<pdfrwt beam="2">  1       21 0.98275495E-02 0.20158699E+03</pdfrwt>
<totfact> 0.14400220E+04</totfact>
</mgrwt>
</event>
<event>
 4    1  0.4263413E+000  0.2049309E+03  0.7546771E-02  0.1145644E+00
         21   -1    0    0  503  502  0.00000000000E+00  0.00000000000E+00  0.18986101234E+04  0.18986101234E+04  0.00000000000E+00 0. -1.
         21   -1    0    0  501  503 -0.00000000000E+00 -0.00000000000E+00 -0.79515938134E+02  0.79515938134E+02  0.00000000000E+00 0.  1.
          6    1    1    2  501    0  0.54141745995E+02  0.95584165529E+02  0.69238818808E+02  0.21631152394E+03  0.17300000000E+03 0.  1.
         -6    1    1    2    0  502 -0.54141745995E+02 -0.95584165529E+02  0.17498553665E+04  0.17618145376E+04  0.17300000000E+03 0. -1.
<mgrwt>
<rscale>  2 0.20493087E+03</rscale>
<asrwt>0</asrwt>
<pdfrwt beam="1">  1       21 0.29209383E+00 0.20493087E+03</pdfrwt>
<pdfrwt beam="2">  1       21 0.12233223E-01 0.20493087E+03</pdfrwt>
<totfact> 0.21173633E+03</totfact>
</mgrwt>
</event>
<event>
 4    1  0.4263413E+000  0.1824608E+03  0.7546771E-02  0.1165443E+00
         21   -1    0    0  503  502  0.00000000000E+00  0.00000000000E+00  0.49083482766E+03  0.49083482766E+03  0.00000000000E+00 0.  1.
         21   -1    0    0  501  503 -0.00000000000E+00 -0.00000000000E+00 -0.70029120907E+02  0.70029120907E+02  0.00000000000E+00 0.  1.
          6    1    1    2  501    0  0.56203928725E+02  0.14284403055E+02  0.16067561704E+03  0.24312256104E+03  0.17300000000E+03 0.  1.
         -6    1    1    2    0  502 -0.56203928725E+02 -0.14284403055E+02  0.26013008971E+03  0.31774138752E+03  0.17300000000E+03 0.  1.
<mgrwt>
<rscale>  2 0.18246075E+03</rscale>
<asrwt>0</asrwt>
<pdfrwt beam="1">  1       21 0.75513048E-01 0.18246075E+03</pdfrwt>
<pdfrwt beam="2">  1       21 0.10773711E-01 0.18246075E+03</pdfrwt>
<totfact> 0.11178046E+05</totfact>
</mgrwt>
</event>
<event>
 4    1  0.4263413E+000  0.1823568E+03  0.7546771E-02  0.1165541E+00
         21   -1    0    0  503  502  0.00000000000E+00  0.00000000000E+00  0.36961467866E+03  0.36961467866E+03  0.00000000000E+00 0. -1.
         21   -1    0    0  501  503 -0.00000000000E+00 -0.00000000000E+00 -0.11318335694E+03  0.11318335694E+03  0.00000000000E+00 0.  1.
          6    1    1    2  501    0  0.22451277256E+02  0.53112530467E+02  0.18890768875E+02  0.18333265364E+03  0.17300000000E+03 0.  1.
         -6    1    1    2    0  502 -0.22451277256E+02 -0.53112530467E+02  0.23754055285E+03  0.29946538196E+03  0.17300000000E+03 0. -1.
<mgrwt>
<rscale>  2 0.18235680E+03</rscale>
<asrwt>0</asrwt>
<pdfrwt beam="1">  1       21 0.56863796E-01 0.18235680E+03</pdfrwt>
<pdfrwt beam="2">  1       21 0.17412824E-01 0.18235680E+03</pdfrwt>
<totfact> 0.87104962E+04</totfact>
</mgrwt>
</event>
<event>
 4    1  0.4263413E+000  0.2441693E+03  0.7546771E-02  0.1117046E+00
         21   -1    0    0  503  502  0.00000000000E+00  0.00000000000E+00  0.12548024659E+04  0.12548024659E+04  0.00000000000E+00 0. -1.
         21   -1    0    0  501  503 -0.00000000000E+00 -0.00000000000E+00 -0.80763540986E+02  0.80763540986E+02  0.00000000000E+00 0.  1.
          6    1    1    2  501    0 -0.57710532402E+02  0.16235499686E+03  0.15853892772E+03  0.29112410096E+03  0.17300000000E+03 0.  1.
         -6    1    1    2    0  502  0.57710532402E+02 -0.16235499686E+03  0.10154999971E+04  0.10444419059E+04  0.17300000000E+03 0. -1.
<mgrwt>
<rscale>  2 0.24416931E+03</rscale>
<asrwt>0</asrwt>
<pdfrwt beam="1">  1       21 0.19304652E+00 0.24416931E+03</pdfrwt>
<pdfrwt beam="2">  1       21 0.12425161E-01 0.24416931E+03</pdfrwt>
<totfact> 0.78887946E+03</totfact>
</mgrwt>
</event>
<event>
 4    1  0.4263413E+000  0.2192765E+03  0.7546771E-02  0.1134424E+00
         21   -1    0    0  503  502  0.00000000000E+00  0.00000000000E+00  0.84829184370E+03  0.84829184370E+03  0.00000000000E+00 0. -1.
         21   -1    0    0  501  503 -0.00000000000E+00 -0.00000000000E+00 -0.56688012526E+02  0.56688012526E+02  0.00000000000E+00 0. -1.
          6    1    1    2  501    0 -0.92452459635E+01  0.13441623486E+03  0.39084112794E+03  0.44815062875E+03  0.17300000000E+03 0. -1.
         -6    1    1    2    0  502  0.92452459635E+01 -0.13441623486E+03  0.40076270324E+03  0.45682922747E+03  0.17300000000E+03 0. -1.
<mgrwt>
<rscale>  2 0.21927653E+03</rscale>
<asrwt>0</asrwt>
<pdfrwt beam="1">  1       21 0.13050643E+00 0.21927653E+03</pdfrwt>
<pdfrwt beam="2">  1       21 0.87212333E-02 0.21927653E+03</pdfrwt>
<totfact> 0.43546256E+04</totfact>
</mgrwt>
</event>
<event>
 4    1  0.4263413E+000  0.1871230E+03  0.7546771E-02  0.1161082E+00
         21   -1    0    0  503  502  0.00000000000E+00  0.00000000000E+00  0.13908042454E+03  0.13908042454E+03  0.00000000000E+00 0.  1.
         21   -1    0    0  501  503 -0.00000000000E+00 -0.00000000000E+00 -0.25963794532E+03  0.25963794532E+03  0.00000000000E+00 0.  1.
          6    1    1    2  501    0  0.87548800091E+01  0.70776951123E+02 -0.25554621476E+02  0.18885990420E+03  0.17300000000E+03 0.  1.
         -6    1    1    2    0  502 -0.87548800091E+01 -0.70776951123E+02 -0.95002899301E+02  0.20985846566E+03  0.17300000000E+03 0.  1.
<mgrwt>
<rscale>  2 0.18712302E+03</rscale>
<asrwt>0</asrwt>
<pdfrwt beam="1">  1       21 0.21396988E-01 0.18712302E+03</pdfrwt>
<pdfrwt beam="2">  1       21 0.39944299E-01 0.18712302E+03</pdfrwt>
<totfact> 0.12309989E+05</totfact>
</mgrwt>
</event>
<event>
 4    1  0.4263413E+000  0.1917474E+03  0.7546771E-02  0.1156895E+00
         21   -1    0    0  501  502  0.00000000000E+00  0.00000000000E+00  0.10177375479E+03  0.10177375479E+03  0.00000000000E+00 0. -1.
         21   -1    0    0  502  503 -0.00000000000E+00 -0.00000000000E+00 -0.56725541706E+03  0.56725541706E+03  0.00000000000E+00 0. -1.
          6    1    1    2  501    0  0.37204498302E+02 -0.73850533127E+02 -0.31158939579E+02  0.19426259406E+03  0.17300000000E+03 0. -1.
         -6    1    1    2    0  503 -0.37204498302E+02  0.73850533127E+02 -0.43432272269E+03  0.47476657778E+03  0.17300000000E+03 0. -1.
<mgrwt>
<rscale>  2 0.19174743E+03</rscale>
<asrwt>0</asrwt>
<pdfrwt beam="1">  1       21 0.15657501E-01 0.19174743E+03</pdfrwt>
<pdfrwt beam="2">  1       21 0.87270065E-01 0.19174743E+03</pdfrwt>
<totfact> 0.40938342E+04</totfact>
</mgrwt>
</event>
<event>
 4    1  0.4263413E+000  0.2093428E+03  0.7546771E-02  0.1142087E+00
         21   -1    0    0  503  502  0.00000000000E+00  0.00000000000E+00  0.40730395305E+03  0.40730395305E+03  0.00000000000E+00 0.  1.
         21   -1    0    0  501  503 -0.00000000000E+00 -0.00000000000E+00 -0.12717200740E+03  0.12717200740E+03  0.00000000000E+00 0. -1.
          6    1    1    2  501    0  0.28727015558E+02 -0.11432479489E+03  0.24491420206E+03  0.32219150597E+03  0.17300000000E+03 0. -1.
         -6    1    1    2    0  502 -0.28727015558E+02  0.11432479489E+03  0.35217743593E+02  0.21228445448E+03  0.17300000000E+03 0. -1.
<mgrwt>
<rscale>  2 0.20934278E+03</rscale>
<asrwt>0</asrwt>
<pdfrwt beam="1">  1       21 0.62662146E-01 0.20934278E+03</pdfrwt>
<pdfrwt beam="2">  1       21 0.19564924E-01 0.20934278E+03</pdfrwt>
<totfact> 0.56305713E+04</totfact>
</mgrwt>
</event>
<event>
 4    1  0.4263413E+000  0.1929563E+03  0.7546771E-02  0.1155822E+00
         21   -1    0    0  503  502  0.00000000000E+00  0.00000000000E+00  0.94034338715E+02  0.94034338715E+02  0.00000000000E+00 0. -1.
         21   -1    0    0  501  503 -0.00000000000E+00 -0.00000000000E+00 -0.39637884222E+03  0.39637884222E+03  0.00000000000E+00 0. -1.
          6    1    1    2  501    0 -0.73770624239E+02  0.43139815932E+02 -0.14303242803E+03  0.24018830985E+03  0.17300000000E+03 0. -1.
         -6    1    1    2    0  502  0.73770624239E+02 -0.43139815932E+02 -0.15931207547E+03  0.25022487109E+03  0.17300000000E+03 0. -1.
<mgrwt>
<rscale>  2 0.19295634E+03</rscale>
<asrwt>0</asrwt>
<pdfrwt beam="1">  1       21 0.14466822E-01 0.19295634E+03</pdfrwt>
<pdfrwt beam="2">  1       21 0.60981360E-01 0.19295634E+03</pdfrwt>
<totfact> 0.10483587E+05</totfact>
</mgrwt>
</event>
<event>
 4    1  0.4263413E+000  0.1793065E+03  0.7546771E-02  0.1168476E+00
         21   -1    0    0  503  502  0.00000000000E+00  0.00000000000E+00  0.27038629305E+03  0.27038629305E+03  0.00000000000E+00 0.  1.
         21   -1    0    0  501  503 -0.00000000000E+00 -0.00000000000E+00 -0.15763349063E+03  0.15763349063E+03  0.00000000000E+00 0.  1.
          6    1    1    2  501    0 -0.28472023330E+02 -0.37565272493E+02 -0.49698840051E+02  0.18606660236E+03  0.17300000000E+03 0.  1.
         -6    1    1    2    0  502  0.28472023330E+02  0.37565272493E+02  0.16245164248E+03  0.24195318133E+03  0.17300000000E+03 0.  1.
<mgrwt>
<rscale>  2 0.17930646E+03</rscale>
<asrwt>0</asrwt>
<pdfrwt beam="1">  1       21 0.41597891E-01 0.17930646E+03</pdfrwt>
<pdfrwt beam="2">  1       21 0.24251306E-01 0.17930646E+03</pdfrwt>
<totfact> 0.89772672E+04</totfact>
</mgrwt>
</event>
<event>
 4    1  0.4263413E+000  0.1965224E+03  0.7546771E-02  0.1152707E+00
         21   -1    0    0  503  502  0.00000000000E+00  0.00000000000E+00  0.57597511801E+03  0.57597511801E+03  0.00000000000E+00 0. -1.
         21   -1    0    0  501  503 -0.00000000000E+00 -0.00000000000E+00 -0.79714254328E+02  0.79714254328E+02  0.00000000000E+00 0. -1.
          6    1    1    2  501    0 -0.92494898833E+02 -0.11694727024E+02  0.11747358656E+03  0.22895658211E+03  0.17300000000E+03 0. -1.
         -6    1    1    2    0  502  0.92494898833E+02  0.11694727024E+02  0.37878727712E+03  0.42673279023E+03  0.17300000000E+03 0. -1.
<mgrwt>
<rscale>  2 0.19652245E+03</rscale>
<asrwt>0</asrwt>
<pdfrwt beam="1">  1       21 0.88611554E-01 0.19652245E+03</pdfrwt>
<pdfrwt beam="2">  1       21 0.12263732E-01 0.19652245E+03</pdfrwt>
<totfact> 0.61352852E+04</totfact>
</mgrwt>
</event>
<event>
 4    1  0.4263413E+000  0.1906739E+03  0.7546771E-02  0.1157855E+00
         21   -1    0    0  503  502  0.00000000000E+00  0.00000000000E+00  0.26253679929E+03  0.26253679929E+03  0.00000000000E+00 0. -1.
         21   -1    0    0  501  503 -0.00000000000E+00 -0.00000000000E+00 -0.16200467261E+03  0.16200467261E+03  0.00000000000E+00 0.  1.
          6    1    1    2  501    0 -0.74571379609E+02  0.29438680310E+02 -0.30619871562E+02  0.19311681203E+03  0.17300000000E+03 0.  1.
         -6    1    1    2    0  502  0.74571379609E+02 -0.29438680310E+02  0.13115199824E+03  0.23142465987E+03  0.17300000000E+03 0.  1.
<mgrwt>
<rscale>  2 0.19067387E+03</rscale>
<asrwt>0</asrwt>
<pdfrwt beam="1">  1       21 0.40390277E-01 0.19067387E+03</pdfrwt>
<pdfrwt beam="2">  1       21 0.24923796E-01 0.19067387E+03</pdfrwt>
<totfact> 0.90058420E+04</totfact>
</mgrwt>
</event>
<event>
 4    1  0.4263413E+000  0.1804784E+03  0.7546771E-02  0.1167341E+00
         21   -1    0    0  501  502  0.00000000000E+00  0.00000000000E+00  0.10185250383E+03  0.10185250383E+03  0.00000000000E+00 0.  1.
         21   -1    0    0  502  503 -0.00000000000E+00 -0.00000000000E+00 -0.33310139208E+03  0.33310139208E+03  0.00000000000E+00 0.  1.
          6    1    1    2  501    0  0.16972792024E+02 -0.48532366883E+02 -0.15908225548E+03  0.24058185783E+03  0.17300000000E+03 0. -1.
         -6    1    1    2    0  503 -0.16972792024E+02  0.48532366883E+02 -0.72166632762E+02  0.19437203808E+03  0.17300000000E+03 0. -1.
<mgrwt>
<rscale>  2 0.18047844E+03</rscale>
<asrwt>0</asrwt>
<pdfrwt beam="1">  1       21 0.15669616E-01 0.18047844E+03</pdfrwt>
<pdfrwt beam="2">  1       21 0.51246367E-01 0.18047844E+03</pdfrwt>
<totfact> 0.13165907E+05</totfact>
</mgrwt>
</event>
<event>
 4    1  0.4263413E+000  0.2191665E+03  0.7546771E-02  0.1134506E+00
         21   -1    0    0  501  502  0.00000000000E+00  0.00000000000E+00  0.43515114207E+03  0.43515114207E+03  0.00000000000E+00 0. -1.
         21   -1    0    0  502  503 -0.00000000000E+00 -0.00000000000E+00 -0.15633062863E+03  0.15633062863E+03  0.00000000000E+00 0.  1.
          6    1    1    2  501    0  0.18426432596E+02  0.13328694291E+03  0.29973988260E+03  0.37131918856E+03  0.17300000000E+03 0. -1.
         -6    1    1    2    0  503 -0.18426432596E+02 -0.13328694291E+03 -0.20919369157E+02  0.22016258214E+03  0.17300000000E+03 0.  1.
<mgrwt>
<rscale>  2 0.21916647E+03</rscale>
<asrwt>0</asrwt>
<pdfrwt beam="1">  1       21 0.66946329E-01 0.21916647E+03</pdfrwt>
<pdfrwt beam="2">  1       21 0.24050866E-01 0.21916647E+03</pdfrwt>
<totfact> 0.32859138E+04</totfact>
</mgrwt>
</event>
<event>
 4    1  0.4263413E+000  0.2632048E+03  0.7546771E-02  0.1105233E+00
         21   -1    0    0  503  502  0.00000000000E+00  0.00000000000E+00  0.12669697475E+03  0.12669697475E+03  0.00000000000E+00 0.  1.
         21   -1    0    0  501  503 -0.00000000000E+00 -0.00000000000E+00 -0.55809110628E+03  0.55809110628E+03  0.00000000000E+00 0. -1.
          6    1    1    2  501    0  0.46279750435E+01 -0.19830868612E+03 -0.26441813239E+03  0.37308672166E+03  0.17300000000E+03 0. -1.
         -6    1    1    2    0  502 -0.46279750435E+01  0.19830868612E+03 -0.16697599914E+03  0.31170135937E+03  0.17300000000E+03 0.  1.
<mgrwt>
<rscale>  2 0.26320477E+03</rscale>
<asrwt>0</asrwt>
<pdfrwt beam="1">  1       21 0.19491842E-01 0.26320477E+03</pdfrwt>
<pdfrwt beam="2">  1       21 0.85860170E-01 0.26320477E+03</pdfrwt>
<totfact> 0.27360550E+04</totfact>
</mgrwt>
</event>
<event>
 4    1  0.4263413E+000  0.3375922E+03  0.7546771E-02  0.1067826E+00
         21   -1    0    0  501  502  0.00000000000E+00  0.00000000000E+00  0.15848356204E+03  0.15848356204E+03  0.00000000000E+00 0. -1.
         21   -1    0    0  502  503 -0.00000000000E+00 -0.00000000000E+00 -0.74452211306E+03  0.74452211306E+03  0.00000000000E+00 0. -1.
          6    1    1    2  501    0 -0.23175416172E+03  0.17415359648E+03 -0.20961868116E+03  0.39737697232E+03  0.17300000000E+03 0. -1.
         -6    1    1    2    0  503  0.23175416172E+03 -0.17415359648E+03 -0.37641986986E+03  0.50562870278E+03  0.17300000000E+03 0. -1.
<mgrwt>
<rscale>  2 0.33759216E+03</rscale>
<asrwt>0</asrwt>
<pdfrwt beam="1">  1       21 0.24382087E-01 0.33759216E+03</pdfrwt>
<pdfrwt beam="2">  1       21 0.11454186E+00 0.33759216E+03</pdfrwt>
<totfact> 0.86720388E+03</totfact>
</mgrwt>
</event>
<event>
 4    1  0.4263413E+000  0.1908615E+03  0.7546771E-02  0.1157687E+00
         21   -1    0    0  501  502  0.00000000000E+00  0.00000000000E+00  0.13189595339E+02  0.13189595339E+02  0.00000000000E+00 0.  1.
         21   -1    0    0  502  503 -0.00000000000E+00 -0.00000000000E+00 -0.28075705567E+04  0.28075705567E+04  0.00000000000E+00 0.  1.
          6    1    1    2  501    0 -0.49274234515E+02  0.63805749713E+02 -0.12172751864E+04  0.12321473139E+04  0.17300000000E+03 0.  1.
         -6    1    1    2    0  503  0.49274234515E+02 -0.63805749713E+02 -0.15771057750E+04  0.15886128381E+04  0.17300000000E+03 0.  1.
<mgrwt>
<rscale>  2 0.19086153E+03</rscale>
<asrwt>0</asrwt>
<pdfrwt beam="1">  1       21 0.20291694E-02 0.19086153E+03</pdfrwt>
<pdfrwt beam="2">  1       21 0.43193375E+00 0.19086153E+03</pdfrwt>
<totfact> 0.65847766E+03</totfact>
</mgrwt>
</event>
<event>
 4    1  0.4263413E+000  0.1790630E+03  0.7546771E-02  0.1168713E+00
         21   -1    0    0  501  502  0.00000000000E+00  0.00000000000E+00  0.37064835811E+03  0.37064835811E+03  0.00000000000E+00 0.  1.
         21   -1    0    0  502  503 -0.00000000000E+00 -0.00000000000E+00 -0.28587948431E+03  0.28587948431E+03  0.00000000000E+00 0.  1.
          6    1    1    2  501    0  0.32139263296E+02 -0.33190827295E+02  0.31651951050E+03  0.36365940630E+03  0.17300000000E+03 0.  1.
         -6    1    1    2    0  503 -0.32139263296E+02  0.33190827295E+02 -0.23175063670E+03  0.29286843612E+03  0.17300000000E+03 0.  1.
<mgrwt>
<rscale>  2 0.17906301E+03</rscale>
<asrwt>0</asrwt>
<pdfrwt beam="1">  1       21 0.57022825E-01 0.17906301E+03</pdfrwt>
<pdfrwt beam="2">  1       21 0.43981459E-01 0.17906301E+03</pdfrwt>
<totfact> 0.14474240E+04</totfact>
</mgrwt>
</event>
<event>
 4    1  0.4263413E+000  0.2124435E+03  0.7546771E-02  0.1139646E+00
         21   -1    0    0  503  502  0.00000000000E+00  0.00000000000E+00  0.55643201501E+03  0.55643201501E+03  0.00000000000E+00 0. -1.
         21   -1    0    0  501  503 -0.00000000000E+00 -0.00000000000E+00 -0.12393078696E+03  0.12393078696E+03  0.00000000000E+00 0. -1.
          6    1    1    2  501    0 -0.79534153759E+02  0.94220715726E+02  0.16288341478E+02  0.21306697293E+03  0.17300000000E+03 0. -1.
         -6    1    1    2    0  502  0.79534153759E+02 -0.94220715726E+02  0.41621288657E+03  0.46729582903E+03  0.17300000000E+03 0. -1.
<mgrwt>
<rscale>  2 0.21244346E+03</rscale>
<asrwt>0</asrwt>
<pdfrwt beam="1">  1       21 0.85604924E-01 0.21244346E+03</pdfrwt>
<pdfrwt beam="2">  1       21 0.19066275E-01 0.21244346E+03</pdfrwt>
<totfact> 0.29424065E+04</totfact>
</mgrwt>
</event>
<event>
 4    1  0.4263413E+000  0.1789578E+03  0.7546771E-02  0.1168816E+00
         21   -1    0    0  503  502  0.00000000000E+00  0.00000000000E+00  0.62412340578E+03  0.62412340578E+03  0.00000000000E+00 0. -1.
         21   -1    0    0  501  503 -0.00000000000E+00 -0.00000000000E+00 -0.51355915885E+02  0.51355915885E+02  0.00000000000E+00 0. -1.
          6    1    1    2  501    0  0.30538285249E+02 -0.34121845145E+02  0.27666482560E+03  0.32949857801E+03  0.17300000000E+03 0.  1.
         -6    1    1    2    0  502 -0.30538285249E+02  0.34121845145E+02  0.29610266429E+03  0.34598074366E+03  0.17300000000E+03 0.  1.
<mgrwt>
<rscale>  2 0.17895778E+03</rscale>
<asrwt>0</asrwt>
<pdfrwt beam="1">  1       21 0.96018980E-01 0.17895778E+03</pdfrwt>
<pdfrwt beam="2">  1       21 0.79009105E-02 0.17895778E+03</pdfrwt>
<totfact> 0.11139572E+05</totfact>
</mgrwt>
</event>
<event>
 4    1  0.4263413E+000  0.1797128E+03  0.7546771E-02  0.1168081E+00
         21   -1    0    0  501  502  0.00000000000E+00  0.00000000000E+00  0.10052204932E+04  0.10052204932E+04  0.00000000000E+00 0.  1.
         21   -1    0    0  502  503 -0.00000000000E+00 -0.00000000000E+00 -0.40239257971E+02  0.40239257971E+02  0.00000000000E+00 0.  1.
          6    1    1    2  501    0  0.27070995009E+02  0.40433291033E+02  0.71716772412E+03  0.73934175745E+03  0.17300000000E+03 0.  1.
         -6    1    1    2    0  503 -0.27070995009E+02 -0.40433291033E+02  0.24781351115E+03  0.30611799376E+03  0.17300000000E+03 0.  1.
<mgrwt>
<rscale>  2 0.17971280E+03</rscale>
<asrwt>0</asrwt>
<pdfrwt beam="1">  1       21 0.15464929E+00 0.17971280E+03</pdfrwt>
<pdfrwt beam="2">  1       21 0.61906558E-02 0.17971280E+03</pdfrwt>
<totfact> 0.51909581E+04</totfact>
</mgrwt>
</event>
<event>
 4    1  0.4263413E+000  0.2291200E+03  0.7546771E-02  0.1127261E+00
         21   -1    0    0  503  502  0.00000000000E+00  0.00000000000E+00  0.41809669504E+03  0.41809669504E+03  0.00000000000E+00 0. -1.
         21   -1    0    0  501  503 -0.00000000000E+00 -0.00000000000E+00 -0.15133419667E+03  0.15133419667E+03  0.00000000000E+00 0.  1.
          6    1    1    2  501    0  0.12083629134E+03  0.89249970350E+02  0.15880621062E+02  0.22966967723E+03  0.17300000000E+03 0.  1.
         -6    1    1    2    0  502 -0.12083629134E+03 -0.89249970350E+02  0.25088187730E+03  0.33976121449E+03  0.17300000000E+03 0. -1.
<mgrwt>
<rscale>  2 0.22911998E+03</rscale>
<asrwt>0</asrwt>
<pdfrwt beam="1">  1       21 0.64322568E-01 0.22911998E+03</pdfrwt>
<pdfrwt beam="2">  1       21 0.23282184E-01 0.22911998E+03</pdfrwt>
<totfact> 0.37970860E+04</totfact>
</mgrwt>
</event>
<event>
 4    1  0.4263413E+000  0.1848095E+03  0.7546771E-02  0.1163228E+00
         21   -1    0    0  501  502  0.00000000000E+00  0.00000000000E+00  0.19122317287E+03  0.19122317287E+03  0.00000000000E+00 0.  1.
         21   -1    0    0  502  503 -0.00000000000E+00 -0.00000000000E+00 -0.23339133661E+03  0.23339133661E+03  0.00000000000E+00 0.  1.
          6    1    1    2  501    0  0.35181713576E+02 -0.54660685360E+02  0.81773237959E+02  0.20209256775E+03  0.17300000000E+03 0.  1.
         -6    1    1    2    0  503 -0.35181713576E+02  0.54660685360E+02 -0.12394140170E+03  0.22252194173E+03  0.17300000000E+03 0.  1.
<mgrwt>
<rscale>  2 0.18480948E+03</rscale>
<asrwt>0</asrwt>
<pdfrwt beam="1">  1       21 0.29418950E-01 0.18480948E+03</pdfrwt>
<pdfrwt beam="2">  1       21 0.35906360E-01 0.18480948E+03</pdfrwt>
<totfact> 0.83054617E+04</totfact>
</mgrwt>
</event>
<event>
 4    1  0.4263413E+000  0.1894360E+03  0.7546771E-02  0.1158971E+00
         21   -1    0    0  503  502  0.00000000000E+00  0.00000000000E+00  0.14728296713E+04  0.14728296713E+04  0.00000000000E+00 0.  1.
         21   -1    0    0  501  503 -0.00000000000E+00 -0.00000000000E+00 -0.48800130256E+02  0.48800130256E+02  0.00000000000E+00 0.  1.
          6    1    1    2  501    0  0.63933050323E+02 -0.43238306423E+02  0.17365464579E+03  0.25698622934E+03  0.17300000000E+03 0.  1.
         -6    1    1    2    0  502 -0.63933050323E+02  0.43238306423E+02  0.12503748952E+04  0.12646435722E+04  0.17300000000E+03 0.  1.
<mgrwt>
<rscale>  2 0.18943597E+03</rscale>
<asrwt>0</asrwt>
<pdfrwt beam="1">  1       21 0.22658915E+00 0.18943597E+03</pdfrwt>
<pdfrwt beam="2">  1       21 0.75077135E-02 0.18943597E+03</pdfrwt>
<totfact> 0.12323972E+04</totfact>
</mgrwt>
</event>
<event>
 4    1  0.4263413E+000  0.2985667E+03  0.7546771E-02  0.1085959E+00
         21   -1    0    0  503  502  0.00000000000E+00  0.00000000000E+00  0.42373841601E+03  0.42373841601E+03  0.00000000000E+00 0. -1.
         21   -1    0    0  501  503 -0.00000000000E+00 -0.00000000000E+00 -0.21377425887E+03  0.21377425887E+03  0.00000000000E+00 0.  1.
          6    1    1    2  501    0  0.64385076152E+01 -0.24325217969E+03  0.14520358012E+03  0.33200324845E+03  0.17300000000E+03 0. -1.
         -6    1    1    2    0  502 -0.64385076152E+01  0.24325217969E+03  0.64760577019E+02  0.30550942643E+03  0.17300000000E+03 0.  1.
<mgrwt>
<rscale>  2 0.29856670E+03</rscale>
<asrwt>0</asrwt>
<pdfrwt beam="1">  1       21 0.65190525E-01 0.29856670E+03</pdfrwt>
<pdfrwt beam="2">  1       21 0.32888348E-01 0.29856670E+03</pdfrwt>
<totfact> 0.18269708E+04</totfact>
</mgrwt>
</event>
<event>
 4    1  0.4263413E+000  0.2954259E+03  0.7546771E-02  0.1087550E+00
         21   -1    0    0  503  502  0.00000000000E+00  0.00000000000E+00  0.40529380289E+03  0.40529380289E+03  0.00000000000E+00 0. -1.
         21   -1    0    0  501  503 -0.00000000000E+00 -0.00000000000E+00 -0.67144880500E+03  0.67144880500E+03  0.00000000000E+00 0. -1.
          6    1    1    2  501    0 -0.98861822829E+02 -0.21811412969E+03 -0.57679763074E+03  0.64805242104E+03  0.17300000000E+03 0. -1.
         -6    1    1    2    0  502  0.98861822829E+02  0.21811412969E+03  0.31064262863E+03  0.42869018685E+03  0.17300000000E+03 0. -1.
<mgrwt>
<rscale>  2 0.29542585E+03</rscale>
<asrwt>0</asrwt>
<pdfrwt beam="1">  1       21 0.62352894E-01 0.29542585E+03</pdfrwt>
<pdfrwt beam="2">  1       21 0.10329981E+00 0.29542585E+03</pdfrwt>
<totfact> 0.16757626E+03</totfact>
</mgrwt>
</event>
<event>
 4    1  0.4263413E+000  0.1946372E+03  0.7546771E-02  0.1154344E+00
         21   -1    0    0  503  502  0.00000000000E+00  0.00000000000E+00  0.86675946049E+03  0.86675946049E+03  0.00000000000E+00 0.  1.
         21   -1    0    0  501  503 -0.00000000000E+00 -0.00000000000E+00 -0.53466498460E+02  0.53466498460E+02  0.00000000000E+00 0.  1.
          6    1    1    2  501    0 -0.40445129280E+02 -0.79491060803E+02  0.21006948047E+03  0.28637881181E+03  0.17300000000E+03 0.  1.
         -6    1    1    2    0  502  0.40445129280E+02  0.79491060803E+02  0.60322348156E+03  0.63384714714E+03  0.17300000000E+03 0.  1.
<mgrwt>
<rscale>  2 0.19463719E+03</rscale>
<asrwt>0</asrwt>
<pdfrwt beam="1">  1       21 0.13334760E+00 0.19463719E+03</pdfrwt>
<pdfrwt beam="2">  1       21 0.82256158E-02 0.19463719E+03</pdfrwt>
<totfact> 0.46289520E+04</totfact>
</mgrwt>
</event>
<event>
 4    1  0.4263413E+000  0.1767294E+03  0.7546771E-02  0.1171006E+00
         21   -1    0    0  503  502  0.00000000000E+00  0.00000000000E+00  0.11199815641E+03  0.11199815641E+03  0.00000000000E+00 0. -1.
         21   -1    0    0  501  503 -0.00000000000E+00 -0.00000000000E+00 -0.41943798239E+03  0.41943798239E+03  0.00000000000E+00 0.  1.
          6    1    1    2  501    0  0.25502464218E+02 -0.25571837764E+02 -0.30754434878E+03  0.35470666901E+03  0.17300000000E+03 0.  1.
         -6    1    1    2    0  502 -0.25502464218E+02  0.25571837764E+02  0.10452280472E+00  0.17672946979E+03  0.17300000000E+03 0. -1.
<mgrwt>
<rscale>  2 0.17672944E+03</rscale>
<asrwt>0</asrwt>
<pdfrwt beam="1">  1       21 0.17230486E-01 0.17672944E+03</pdfrwt>
<pdfrwt beam="2">  1       21 0.64528920E-01 0.17672944E+03</pdfrwt>
<totfact> 0.67858752E+04</totfact>
</mgrwt>
</event>
<event>
 4    1  0.4263413E+000  0.2395351E+03  0.7546771E-02  0.1120103E+00
         21   -1    0    0  501  502  0.00000000000E+00  0.00000000000E+00  0.20829877768E+03  0.20829877768E+03  0.00000000000E+00 0.  1.
         21   -1    0    0  502  503 -0.00000000000E+00 -0.00000000000E+00 -0.35423515168E+03  0.35423515168E+03  0.00000000000E+00 0.  1.
          6    1    1    2  501    0  0.20655885738E+02 -0.16438182222E+03  0.59673445711E+02  0.24685617111E+03  0.17300000000E+03 0.  1.
         -6    1    1    2    0  503 -0.20655885738E+02  0.16438182222E+03 -0.20560981972E+03  0.31567775825E+03  0.17300000000E+03 0.  1.
<mgrwt>
<rscale>  2 0.23953507E+03</rscale>
<asrwt>0</asrwt>
<pdfrwt beam="1">  1       21 0.32045966E-01 0.23953507E+03</pdfrwt>
<pdfrwt beam="2">  1       21 0.54497716E-01 0.23953507E+03</pdfrwt>
<totfact> 0.29073632E+04</totfact>
</mgrwt>
</event>
<event>
 4    1  0.4263413E+000  0.1851226E+03  0.7546771E-02  0.1162935E+00
         21   -1    0    0  503  502  0.00000000000E+00  0.00000000000E+00  0.83960286421E+03  0.83960286421E+03  0.00000000000E+00 0.  1.
         21   -1    0    0  501  503 -0.00000000000E+00 -0.00000000000E+00 -0.49470828424E+02  0.49470828424E+02  0.00000000000E+00 0.  1.
          6    1    1    2  501    0 -0.33023578667E+02  0.57015872251E+02  0.20914501366E+03  0.27930628918E+03  0.17300000000E+03 0.  1.
         -6    1    1    2    0  502  0.33023578667E+02 -0.57015872251E+02  0.58098702212E+03  0.60976740345E+03  0.17300000000E+03 0.  1.
<mgrwt>
<rscale>  2 0.18512257E+03</rscale>
<asrwt>0</asrwt>
<pdfrwt beam="1">  1       21 0.12916966E+00 0.18512257E+03</pdfrwt>
<pdfrwt beam="2">  1       21 0.76108973E-02 0.18512257E+03</pdfrwt>
<totfact> 0.57709816E+04</totfact>
</mgrwt>
</event>
<event>
 4    1  0.4263413E+000  0.1766200E+03  0.7546771E-02  0.1171115E+00
         21   -1    0    0  501  502  0.00000000000E+00  0.00000000000E+00  0.11493073883E+03  0.11493073883E+03  0.00000000000E+00 0. -1.
         21   -1    0    0  502  503 -0.00000000000E+00 -0.00000000000E+00 -0.37202482628E+03  0.37202482628E+03  0.00000000000E+00 0. -1.
          6    1    1    2  501    0 -0.30715700012E+02  0.17949327625E+02 -0.19334558911E+01  0.17663060562E+03  0.17300000000E+03 0. -1.
         -6    1    1    2    0  503  0.30715700012E+02 -0.17949327625E+02 -0.25516063156E+03  0.31032495949E+03  0.17300000000E+03 0. -1.
<mgrwt>
<rscale>  2 0.17662002E+03</rscale>
<asrwt>0</asrwt>
<pdfrwt beam="1">  1       21 0.17681652E-01 0.17662002E+03</pdfrwt>
<pdfrwt beam="2">  1       21 0.57234589E-01 0.17662002E+03</pdfrwt>
<totfact> 0.83718072E+04</totfact>
</mgrwt>
</event>
<event>
 4    1  0.4263413E+000  0.1798582E+03  0.7546771E-02  0.1167940E+00
         21   -1    0    0  503  502  0.00000000000E+00  0.00000000000E+00  0.88079428933E+02  0.88079428933E+02  0.00000000000E+00 0. -1.
         21   -1    0    0  501  503 -0.00000000000E+00 -0.00000000000E+00 -0.39014201877E+03  0.39014201877E+03  0.00000000000E+00 0. -1.
          6    1    1    2  501    0 -0.40808252084E+01 -0.49023640303E+02 -0.20892559151E+03  0.27567893142E+03  0.17300000000E+03 0. -1.
         -6    1    1    2    0  502  0.40808252084E+01  0.49023640303E+02 -0.93136998323E+02  0.20254251628E+03  0.17300000000E+03 0. -1.
<mgrwt>
<rscale>  2 0.17985820E+03</rscale>
<asrwt>0</asrwt>
<pdfrwt beam="1">  1       21 0.13550681E-01 0.17985820E+03</pdfrwt>
<pdfrwt beam="2">  1       21 0.60021849E-01 0.17985820E+03</pdfrwt>
<totfact> 0.12268007E+05</totfact>
</mgrwt>
</event>
<event>
 4    1  0.4263413E+000  0.2053583E+03  0.7546771E-02  0.1145295E+00
         21   -1    0    0  503  502  0.00000000000E+00  0.00000000000E+00  0.55987542282E+03  0.55987542282E+03  0.00000000000E+00 0. -1.
         21   -1    0    0  501  503 -0.00000000000E+00 -0.00000000000E+00 -0.85194719349E+02  0.85194719349E+02  0.00000000000E+00 0. -1.
          6    1    1    2  501    0 -0.46444682759E+02 -0.10042873389E+03  0.12755467471E+03  0.24174828684E+03  0.17300000000E+03 0. -1.
         -6    1    1    2    0  502  0.46444682759E+02  0.10042873389E+03  0.34712602875E+03  0.40332185533E+03  0.17300000000E+03 0. -1.
<mgrwt>
<rscale>  2 0.20535832E+03</rscale>
<asrwt>0</asrwt>
<pdfrwt beam="1">  1       21 0.86134678E-01 0.20535832E+03</pdfrwt>
<pdfrwt beam="2">  1       21 0.13106880E-01 0.20535832E+03</pdfrwt>
<totfact> 0.57863366E+04</totfact>
</mgrwt>
</event>
<event>
 4    1  0.4263413E+000  0.2626975E+03  0.7546771E-02  0.1105533E+00
         21   -1    0    0  503  502  0.00000000000E+00  0.00000000000E+00  0.27752077915E+02  0.27752077915E+02  0.00000000000E+00 0.  1.
         21   -1    0    0  501  503 -0.00000000000E+00 -0.00000000000E+00 -0.24912828264E+04  0.24912828264E+04  0.00000000000E+00 0. -1.
          6    1    1    2  501    0 -0.10751707491E+03  0.16589470989E+03 -0.12860224586E+04  0.13125790415E+04  0.17300000000E+03 0. -1.
         -6    1    1    2    0  502  0.10751707491E+03 -0.16589470989E+03 -0.11775082899E+04  0.12064558629E+04  0.17300000000E+03 0. -1.
<mgrwt>
<rscale>  2 0.26269750E+03</rscale>
<asrwt>0</asrwt>
<pdfrwt beam="1">  1       21 0.42695498E-02 0.26269750E+03</pdfrwt>
<pdfrwt beam="2">  1       21 0.38327434E+00 0.26269750E+03</pdfrwt>
<totfact> 0.35744370E+03</totfact>
</mgrwt>
</event>
<event>
 4    1  0.4263413E+000  0.1863435E+03  0.7546771E-02  0.1161801E+00
         21   -1    0    0  503  502  0.00000000000E+00  0.00000000000E+00  0.60989949816E+03  0.60989949816E+03  0.00000000000E+00 0. -1.
         21   -1    0    0  501  503 -0.00000000000E+00 -0.00000000000E+00 -0.57085997298E+02  0.57085997298E+02  0.00000000000E+00 0. -1.
          6    1    1    2  501    0  0.61739595028E+02  0.31354588201E+02  0.25918630530E+03  0.31922003172E+03  0.17300000000E+03 0. -1.
         -6    1    1    2    0  502 -0.61739595028E+02 -0.31354588201E+02  0.29362719556E+03  0.34776546374E+03  0.17300000000E+03 0. -1.
<mgrwt>
<rscale>  2 0.18634347E+03</rscale>
<asrwt>0</asrwt>
<pdfrwt beam="1">  1       21 0.93830688E-01 0.18634347E+03</pdfrwt>
<pdfrwt beam="2">  1       21 0.87824615E-02 0.18634347E+03</pdfrwt>
<totfact> 0.97477452E+04</totfact>
</mgrwt>
</event>
<event>
 4    1  0.4263413E+000  0.2594435E+03  0.7546771E-02  0.1107478E+00
         21   -1    0    0  501  502  0.00000000000E+00  0.00000000000E+00  0.46449007266E+03  0.46449007266E+03  0.00000000000E+00 0. -1.
         21   -1    0    0  502  503 -0.00000000000E+00 -0.00000000000E+00 -0.15577667698E+03  0.15577667698E+03  0.00000000000E+00 0.  1.
          6    1    1    2  501    0  0.17981705787E+03 -0.71047605460E+02  0.23625471251E+03  0.35089489270E+03  0.17300000000E+03 0.  1.
         -6    1    1    2    0  503 -0.17981705787E+03  0.71047605460E+02  0.72458683172E+02  0.26937185694E+03  0.17300000000E+03 0. -1.
<mgrwt>
<rscale>  2 0.25944351E+03</rscale>
<asrwt>0</asrwt>
<pdfrwt beam="1">  1       21 0.71460011E-01 0.25944351E+03</pdfrwt>
<pdfrwt beam="2">  1       21 0.23965643E-01 0.25944351E+03</pdfrwt>
<totfact> 0.28102729E+04</totfact>
</mgrwt>
</event>
<event>
 4    1  0.4263413E+000  0.1845702E+03  0.7546771E-02  0.1163452E+00
         21   -1    0    0  503  502  0.00000000000E+00  0.00000000000E+00  0.23450255759E+03  0.23450255759E+03  0.00000000000E+00 0. -1.
         21   -1    0    0  501  503 -0.00000000000E+00 -0.00000000000E+00 -0.17851057874E+03  0.17851057874E+03  0.00000000000E+00 0. -1.
          6    1    1    2  501    0  0.48664522640E+02 -0.42058417445E+02 -0.61116238406E+02  0.19442566919E+03  0.17300000000E+03 0. -1.
         -6    1    1    2    0  502 -0.48664522640E+02  0.42058417445E+02  0.11710821726E+03  0.21858746714E+03  0.17300000000E+03 0. -1.
<mgrwt>
<rscale>  2 0.18457017E+03</rscale>
<asrwt>0</asrwt>
<pdfrwt beam="1">  1       21 0.36077317E-01 0.18457017E+03</pdfrwt>
<pdfrwt beam="2">  1       21 0.27463166E-01 0.18457017E+03</pdfrwt>
<totfact> 0.93997010E+04</totfact>
</mgrwt>
</event>
<event>
 4    1  0.4263413E+000  0.2689669E+03  0.7546771E-02  0.1101872E+00
         21   -1    0    0  503  502  0.00000000000E+00  0.00000000000E+00  0.30415284691E+03  0.30415284691E+03  0.00000000000E+00 0.  1.
         21   -1    0    0  501  503 -0.00000000000E+00 -0.00000000000E+00 -0.23999193552E+03  0.23999193552E+03  0.00000000000E+00 0. -1.
          6    1    1    2  501    0 -0.83365351927E+02  0.18832002439E+03  0.57774729655E+02  0.27510204084E+03  0.17300000000E+03 0.  1.
         -6    1    1    2    0  502  0.83365351927E+02 -0.18832002439E+03  0.63861817287E+01  0.26904274159E+03  0.17300000000E+03 0. -1.
<mgrwt>
<rscale>  2 0.26896694E+03</rscale>
<asrwt>0</asrwt>
<pdfrwt beam="1">  1       21 0.46792746E-01 0.26896694E+03</pdfrwt>
<pdfrwt beam="2">  1       21 0.36921836E-01 0.26896694E+03</pdfrwt>
<totfact> 0.29817413E+04</totfact>
</mgrwt>
</event>
<event>
 4    1  0.4263413E+000  0.2114147E+03  0.7546771E-02  0.1140451E+00
         21   -1    0    0  503  502  0.00000000000E+00  0.00000000000E+00  0.21392301936E+03  0.21392301936E+03  0.00000000000E+00 0. -1.
         21   -1    0    0  501  503 -0.00000000000E+00 -0.00000000000E+00 -0.86434222532E+03  0.86434222532E+03  0.00000000000E+00 0.  1.
          6    1    1    2  501    0  0.96203339468E+01 -0.12113881411E+03 -0.79467989513E+03  0.82232128686E+03  0.17300000000E+03 0.  1.
         -6    1    1    2    0  502 -0.96203339468E+01  0.12113881411E+03  0.14426068916E+03  0.25594395782E+03  0.17300000000E+03 0. -1.
<mgrwt>
<rscale>  2 0.21141467E+03</rscale>
<asrwt>0</asrwt>
<pdfrwt beam="1">  1       21 0.32911234E-01 0.21141467E+03</pdfrwt>
<pdfrwt beam="2">  1       21 0.13297573E+00 0.21141467E+03</pdfrwt>
<totfact> 0.35708968E+03</totfact>
</mgrwt>
</event>
<event>
 4    1  0.4263413E+000  0.2630126E+03  0.7546771E-02  0.1105347E+00
         21   -1    0    0  501  502  0.00000000000E+00  0.00000000000E+00  0.66099281838E+03  0.66099281838E+03  0.00000000000E+00 0. -1.
         21   -1    0    0  502  503 -0.00000000000E+00 -0.00000000000E+00 -0.10479588158E+03  0.10479588158E+03  0.00000000000E+00 0. -1.
          6    1    1    2  501    0 -0.11473947106E+02 -0.19777512808E+03  0.26401809277E+03  0.37266768851E+03  0.17300000000E+03 0. -1.
         -6    1    1    2    0  503  0.11473947106E+02  0.19777512808E+03  0.29217884403E+03  0.39312101146E+03  0.17300000000E+03 0. -1.
<mgrwt>
<rscale>  2 0.26301265E+03</rscale>
<asrwt>0</asrwt>
<pdfrwt beam="1">  1       21 0.10169120E+00 0.26301265E+03</pdfrwt>
<pdfrwt beam="2">  1       21 0.16122444E-01 0.26301265E+03</pdfrwt>
<totfact> 0.26144646E+04</totfact>
</mgrwt>
</event>
<event>
 4    1  0.4263413E+000  0.1887275E+03  0.7546771E-02  0.1159614E+00
         21   -1    0    0  503  502  0.00000000000E+00  0.00000000000E+00  0.21008501897E+04  0.21008501897E+04  0.00000000000E+00 0. -1.
         21   -1    0    0  501  503 -0.00000000000E+00 -0.00000000000E+00 -0.30248681513E+02  0.30248681513E+02  0.00000000000E+00 0.  1.
          6    1    1    2  501    0 -0.70825943012E+02 -0.25937639881E+02  0.32888997658E+03  0.37919215718E+03  0.17300000000E+03 0.  1.
         -6    1    1    2    0  502  0.70825943012E+02  0.25937639881E+02  0.17417115316E+04  0.17519067140E+04  0.17300000000E+03 0. -1.
<mgrwt>
<rscale>  2 0.18872752E+03</rscale>
<asrwt>0</asrwt>
<pdfrwt beam="1">  1       21 0.32320761E+00 0.18872752E+03</pdfrwt>
<pdfrwt beam="2">  1       21 0.46536450E-02 0.18872752E+03</pdfrwt>
<totfact> 0.76521093E+03</totfact>
</mgrwt>
</event>
<event>
 4    1  0.4263413E+000  0.1762647E+03  0.7546771E-02  0.1171468E+00
         21   -1    0    0  501  502  0.00000000000E+00  0.00000000000E+00  0.68011664687E+03  0.68011664687E+03  0.00000000000E+00 0.  1.
         21   -1    0    0  502  503 -0.00000000000E+00 -0.00000000000E+00 -0.10135156699E+03  0.10135156699E+03  0.00000000000E+00 0.  1.
          6    1    1    2  501    0 -0.27318055256E+02 -0.19849009306E+02  0.57896618557E+03  0.60520335702E+03  0.17300000000E+03 0.  1.
         -6    1    1    2    0  503  0.27318055256E+02  0.19849009306E+02 -0.20110569797E+00  0.17626485684E+03  0.17300000000E+03 0.  1.
<mgrwt>
<rscale>  2 0.17626474E+03</rscale>
<asrwt>0</asrwt>
<pdfrwt beam="1">  1       21 0.10463333E+00 0.17626474E+03</pdfrwt>
<pdfrwt beam="2">  1       21 0.15592549E-01 0.17626474E+03</pdfrwt>
<totfact> 0.27191280E+04</totfact>
</mgrwt>
</event>
<event>
 4    1  0.4263413E+000  0.1759942E+03  0.7546771E-02  0.1171737E+00
         21   -1    0    0  501  502  0.00000000000E+00  0.00000000000E+00  0.10643962864E+04  0.10643962864E+04  0.00000000000E+00 0. -1.
         21   -1    0    0  502  503 -0.00000000000E+00 -0.00000000000E+00 -0.37233998813E+02  0.37233998813E+02  0.00000000000E+00 0. -1.
          6    1    1    2  501    0 -0.25889150462E+02 -0.19357607529E+02  0.77102779779E+03  0.79085891918E+03  0.17300000000E+03 0. -1.
         -6    1    1    2    0  503  0.25889150462E+02  0.19357607529E+02  0.25613448978E+03  0.31077136602E+03  0.17300000000E+03 0. -1.
<mgrwt>
<rscale>  2 0.17599422E+03</rscale>
<asrwt>0</asrwt>
<pdfrwt beam="1">  1       21 0.16375325E+00 0.17599422E+03</pdfrwt>
<pdfrwt beam="2">  1       21 0.57283083E-02 0.17599422E+03</pdfrwt>
<totfact> 0.50948312E+04</totfact>
</mgrwt>
</event>
<event>
 4    1  0.4263413E+000  0.2046573E+03  0.7546771E-02  0.1145868E+00
         21   -1    0    0  501  502  0.00000000000E+00  0.00000000000E+00  0.47233688214E+02  0.47233688214E+02  0.00000000000E+00 0. -1.
         21   -1    0    0  502  503 -0.00000000000E+00 -0.00000000000E+00 -0.10561482958E+04  0.10561482958E+04  0.00000000000E+00 0. -1.
          6    1    1    2  501    0 -0.20745529996E+02  0.10735560958E+03 -0.28351218698E+03  0.34966235727E+03  0.17300000000E+03 0. -1.
         -6    1    1    2    0  503  0.20745529996E+02 -0.10735560958E+03 -0.72540242065E+03  0.75371962679E+03  0.17300000000E+03 0. -1.
<mgrwt>
<rscale>  2 0.20465728E+03</rscale>
<asrwt>0</asrwt>
<pdfrwt beam="1">  1       21 0.72667220E-02 0.20465728E+03</pdfrwt>
<pdfrwt beam="2">  1       21 0.16248434E+00 0.20465728E+03</pdfrwt>
<totfact> 0.33974998E+04</totfact>
</mgrwt>
</event>
<event>
 4    1  0.4263413E+000  0.1985921E+03  0.7546771E-02  0.1150932E+00
         21   -1    0    0  503  502  0.00000000000E+00  0.00000000000E+00  0.11376572465E+03  0.11376572465E+03  0.00000000000E+00 0.  1.
         21   -1    0    0  501  503 -0.00000000000E+00 -0.00000000000E+00 -0.49316222279E+03  0.49316222279E+03  0.00000000000E+00 0.  1.
          6    1    1    2  501    0 -0.86780191817E+02  0.44486298388E+02 -0.35509380689E+03  0.40685432789E+03  0.17300000000E+03 0.  1.
         -6    1    1    2    0  502  0.86780191817E+02 -0.44486298388E+02 -0.24302691252E+02  0.20007361955E+03  0.17300000000E+03 0.  1.
<mgrwt>
<rscale>  2 0.19859213E+03</rscale>
<asrwt>0</asrwt>
<pdfrwt beam="1">  1       21 0.17502419E-01 0.19859213E+03</pdfrwt>
<pdfrwt beam="2">  1       21 0.75871110E-01 0.19859213E+03</pdfrwt>
<totfact> 0.45673952E+04</totfact>
</mgrwt>
</event>
<event>
 4    1  0.4263413E+000  0.2457526E+03  0.7546771E-02  0.1116019E+00
         21   -1    0    0  503  502  0.00000000000E+00  0.00000000000E+00  0.22110026658E+03  0.22110026658E+03  0.00000000000E+00 0.  1.
         21   -1    0    0  501  503 -0.00000000000E+00 -0.00000000000E+00 -0.34015447028E+03  0.34015447028E+03  0.00000000000E+00 0.  1.
          6    1    1    2  501    0  0.16078886563E+03  0.67913831608E+02  0.65019518780E+02  0.25420835088E+03  0.17300000000E+03 0.  1.
         -6    1    1    2    0  502 -0.16078886563E+03 -0.67913831608E+02 -0.18407372248E+03  0.30704638598E+03  0.17300000000E+03 0.  1.
<mgrwt>
<rscale>  2 0.24575262E+03</rscale>
<asrwt>0</asrwt>
<pdfrwt beam="1">  1       21 0.34015426E-01 0.24575262E+03</pdfrwt>
<pdfrwt beam="2">  1       21 0.52331456E-01 0.24575262E+03</pdfrwt>
<totfact> 0.28069461E+04</totfact>
</mgrwt>
</event>
<event>
 4    1  0.4263413E+000  0.1989949E+03  0.7546771E-02  0.1150590E+00
         21   -1    0    0  503  502  0.00000000000E+00  0.00000000000E+00  0.11718603058E+03  0.11718603058E+03  0.00000000000E+00 0.  1.
         21   -1    0    0  501  503 -0.00000000000E+00 -0.00000000000E+00 -0.34673990678E+03  0.34673990678E+03  0.00000000000E+00 0.  1.
          6    1    1    2  501    0  0.76576255620E+02 -0.61693177357E+02 -0.15178195153E+03  0.25027331433E+03  0.17300000000E+03 0.  1.
         -6    1    1    2    0  502 -0.76576255620E+02  0.61693177357E+02 -0.77771924679E+02  0.21365262303E+03  0.17300000000E+03 0.  1.
<mgrwt>
<rscale>  2 0.19899490E+03</rscale>
<asrwt>0</asrwt>
<pdfrwt beam="1">  1       21 0.18028620E-01 0.19899490E+03</pdfrwt>
<pdfrwt beam="2">  1       21 0.53344600E-01 0.19899490E+03</pdfrwt>
<totfact> 0.92889571E+04</totfact>
</mgrwt>
</event>
<event>
 4    1  0.4263413E+000  0.1735677E+03  0.7546771E-02  0.1174178E+00
         21   -1    0    0  501  502  0.00000000000E+00  0.00000000000E+00  0.11555367840E+03  0.11555367840E+03  0.00000000000E+00 0.  1.
         21   -1    0    0  502  503 -0.00000000000E+00 -0.00000000000E+00 -0.26884203717E+03  0.26884203717E+03  0.00000000000E+00 0.  1.
          6    1    1    2  501    0 -0.64840711973E+01  0.12437938309E+02 -0.43212490178E+02  0.17886605267E+03  0.17300000000E+03 0.  1.
         -6    1    1    2    0  503  0.64840711973E+01 -0.12437938309E+02 -0.11007586859E+03  0.20552966291E+03  0.17300000000E+03 0.  1.
<mgrwt>
<rscale>  2 0.17356770E+03</rscale>
<asrwt>0</asrwt>
<pdfrwt beam="1">  1       21 0.17777489E-01 0.17356770E+03</pdfrwt>
<pdfrwt beam="2">  1       21 0.41360313E-01 0.17356770E+03</pdfrwt>
<totfact> 0.16269217E+05</totfact>
</mgrwt>
</event>
<event>
 4    1  0.4263413E+000  0.1772284E+03  0.7546771E-02  0.1170513E+00
         21   -1    0    0  501  502  0.00000000000E+00  0.00000000000E+00  0.33108640962E+03  0.33108640962E+03  0.00000000000E+00 0. -1.
         21   -1    0    0  502  503 -0.00000000000E+00 -0.00000000000E+00 -0.17574201961E+03  0.17574201961E+03  0.00000000000E+00 0. -1.
          6    1    1    2  501    0 -0.24936278098E+02 -0.29310327193E+02  0.24957951636E+03  0.30610430940E+03  0.17300000000E+03 0. -1.
         -6    1    1    2    0  503  0.24936278098E+02  0.29310327193E+02 -0.94235126354E+02  0.20072411984E+03  0.17300000000E+03 0. -1.
<mgrwt>
<rscale>  2 0.17722842E+03</rscale>
<asrwt>0</asrwt>
<pdfrwt beam="1">  1       21 0.50936370E-01 0.17722842E+03</pdfrwt>
<pdfrwt beam="2">  1       21 0.27037234E-01 0.17722842E+03</pdfrwt>
<totfact> 0.48134700E+04</totfact>
</mgrwt>
</event>
<event>
 4    1  0.4263413E+000  0.2460192E+03  0.7546771E-02  0.1115847E+00
         21   -1    0    0  503  502  0.00000000000E+00  0.00000000000E+00  0.20643259871E+03  0.20643259871E+03  0.00000000000E+00 0. -1.
         21   -1    0    0  501  503 -0.00000000000E+00 -0.00000000000E+00 -0.30894874849E+03  0.30894874849E+03  0.00000000000E+00 0. -1.
          6    1    1    2  501    0 -0.16323829062E+03 -0.62846706954E+02 -0.10944399387E+03  0.26926462057E+03  0.17300000000E+03 0. -1.
         -6    1    1    2    0  502  0.16323829062E+03  0.62846706954E+02  0.69278440903E+01  0.24611672662E+03  0.17300000000E+03 0. -1.
<mgrwt>
<rscale>  2 0.24601920E+03</rscale>
<asrwt>0</asrwt>
<pdfrwt beam="1">  1       21 0.31758861E-01 0.24601920E+03</pdfrwt>
<pdfrwt beam="2">  1       21 0.47530577E-01 0.24601920E+03</pdfrwt>
<totfact> 0.39344966E+04</totfact>
</mgrwt>
</event>
<event>
 4    1  0.4263413E+000  0.1849296E+03  0.7546771E-02  0.1163116E+00
         21   -1    0    0  501  502  0.00000000000E+00  0.00000000000E+00  0.56035354338E+03  0.56035354338E+03  0.00000000000E+00 0. -1.
         21   -1    0    0  502  503 -0.00000000000E+00 -0.00000000000E+00 -0.20366985990E+03  0.20366985990E+03  0.00000000000E+00 0. -1.
          6    1    1    2  501    0  0.44841477854E+02  0.47531198757E+02  0.49803409740E+03  0.53125976242E+03  0.17300000000E+03 0. -1.
         -6    1    1    2    0  503 -0.44841477854E+02 -0.47531198757E+02 -0.14135041392E+03  0.23276364086E+03  0.17300000000E+03 0. -1.
<mgrwt>
<rscale>  2 0.18492964E+03</rscale>
<asrwt>0</asrwt>
<pdfrwt beam="1">  1       21 0.86208237E-01 0.18492964E+03</pdfrwt>
<pdfrwt beam="2">  1       21 0.31333825E-01 0.18492964E+03</pdfrwt>
<totfact> 0.11414931E+04</totfact>
</mgrwt>
</event>
<event>
 4    1  0.4263413E+000  0.1862123E+03  0.7546771E-02  0.1161923E+00
         21   -1    0    0  503  502  0.00000000000E+00  0.00000000000E+00  0.16758886392E+03  0.16758886392E+03  0.00000000000E+00 0.  1.
         21   -1    0    0  501  503 -0.00000000000E+00 -0.00000000000E+00 -0.32520096120E+03  0.32520096120E+03  0.00000000000E+00 0.  1.
          6    1    1    2  501    0 -0.27940855889E+01 -0.68834797160E+02 -0.22741333446E+03  0.29392492393E+03  0.17300000000E+03 0.  1.
         -6    1    1    2    0  502  0.27940855889E+01  0.68834797160E+02  0.69801237177E+02  0.19886490119E+03  0.17300000000E+03 0.  1.
<mgrwt>
<rscale>  2 0.18621234E+03</rscale>
<asrwt>0</asrwt>
<pdfrwt beam="1">  1       21 0.25782902E-01 0.18621234E+03</pdfrwt>
<pdfrwt beam="2">  1       21 0.50030917E-01 0.18621234E+03</pdfrwt>
<totfact> 0.54500938E+04</totfact>
</mgrwt>
</event>
<event>
 4    1  0.4263413E+000  0.2013685E+03  0.7546771E-02  0.1148589E+00
         21   -1    0    0  501  502  0.00000000000E+00  0.00000000000E+00  0.10038935665E+03  0.10038935665E+03  0.00000000000E+00 0. -1.
         21   -1    0    0  502  503 -0.00000000000E+00 -0.00000000000E+00 -0.51952231407E+03  0.51952231407E+03  0.00000000000E+00 0. -1.
          6    1    1    2  501    0  0.40367354141E+02  0.94819610769E+02 -0.63355246901E+02  0.21109990331E+03  0.17300000000E+03 0. -1.
         -6    1    1    2    0  503 -0.40367354141E+02 -0.94819610769E+02 -0.35577771053E+03  0.40881176741E+03  0.17300000000E+03 0. -1.
<mgrwt>
<rscale>  2 0.20136852E+03</rscale>
<asrwt>0</asrwt>
<pdfrwt beam="1">  1       21 0.15444517E-01 0.20136852E+03</pdfrwt>
<pdfrwt beam="2">  1       21 0.79926508E-01 0.20136852E+03</pdfrwt>
<totfact> 0.51039954E+04</totfact>
</mgrwt>
</event>
<event>
 4    1  0.4263413E+000  0.2651951E+03  0.7546771E-02  0.1104061E+00
         21   -1    0    0  503  502  0.00000000000E+00  0.00000000000E+00  0.11946920192E+04  0.11946920192E+04  0.00000000000E+00 0. -1.
         21   -1    0    0  501  503 -0.00000000000E+00 -0.00000000000E+00 -0.59449384159E+02  0.59449384159E+02  0.00000000000E+00 0.  1.
          6    1    1    2  501    0 -0.31023720836E+02 -0.19858740941E+03  0.50557829334E+03  0.57090966109E+03  0.17300000000E+03 0. -1.
         -6    1    1    2    0  502  0.31023720836E+02  0.19858740941E+03  0.62966434170E+03  0.68323174227E+03  0.17300000000E+03 0. -1.
<mgrwt>
<rscale>  2 0.26519508E+03</rscale>
<asrwt>0</asrwt>
<pdfrwt beam="1">  1       21 0.18379875E+00 0.26519508E+03</pdfrwt>
<pdfrwt beam="2">  1       21 0.91460600E-02 0.26519508E+03</pdfrwt>
<totfact> 0.15521568E+04</totfact>
</mgrwt>
</event>
<event>
 4    1  0.4263413E+000  0.2194253E+03  0.7546771E-02  0.1134312E+00
         21   -1    0    0  503  502  0.00000000000E+00  0.00000000000E+00  0.57525454074E+03  0.57525454074E+03  0.00000000000E+00 0.  1.
         21   -1    0    0  501  503 -0.00000000000E+00 -0.00000000000E+00 -0.83868260063E+02  0.83868260063E+02  0.00000000000E+00 0. -1.
          6    1    1    2  501    0 -0.10303179330E+03  0.87194593882E+02  0.26055770481E+03  0.34064316398E+03  0.17300000000E+03 0.  1.
         -6    1    1    2    0  502  0.10303179330E+03 -0.87194593882E+02  0.23082857587E+03  0.31847963682E+03  0.17300000000E+03 0.  1.
<mgrwt>
<rscale>  2 0.21942527E+03</rscale>
<asrwt>0</asrwt>
<pdfrwt beam="1">  1       21 0.88500696E-01 0.21942527E+03</pdfrwt>
<pdfrwt beam="2">  1       21 0.12902810E-01 0.21942527E+03</pdfrwt>
<totfact> 0.55553675E+04</totfact>
</mgrwt>
</event>
<event>
 4    1  0.4263413E+000  0.2835365E+03  0.7546771E-02  0.1093773E+00
         21   -1    0    0  503  502  0.00000000000E+00  0.00000000000E+00  0.19892898770E+04  0.19892898770E+04  0.00000000000E+00 0.  1.
         21   -1    0    0  501  503 -0.00000000000E+00 -0.00000000000E+00 -0.41529036771E+02  0.41529036771E+02  0.00000000000E+00 0. -1.
          6    1    1    2  501    0  0.18481642637E+03  0.12769821580E+03  0.80741400277E+03  0.85575131764E+03  0.17300000000E+03 0. -1.
         -6    1    1    2    0  502 -0.18481642637E+03 -0.12769821580E+03  0.11403468375E+04  0.11750675961E+04  0.17300000000E+03 0.  1.
<mgrwt>
<rscale>  2 0.28353650E+03</rscale>
<asrwt>0</asrwt>
<pdfrwt beam="1">  1       21 0.30604452E+00 0.28353650E+03</pdfrwt>
<pdfrwt beam="2">  1       21 0.63890841E-02 0.28353650E+03</pdfrwt>
<totfact> 0.51105478E+03</totfact>
</mgrwt>
</event>
<event>
 4    1  0.4263413E+000  0.2287804E+03  0.7546771E-02  0.1127501E+00
         21   -1    0    0  501  502  0.00000000000E+00  0.00000000000E+00  0.14914148352E+03  0.14914148352E+03  0.00000000000E+00 0. -1.
         21   -1    0    0  502  503 -0.00000000000E+00 -0.00000000000E+00 -0.42673879529E+03  0.42673879529E+03  0.00000000000E+00 0.  1.
          6    1    1    2  501    0  0.12730013494E+03  0.78779117844E+02 -0.17449245556E+02  0.22944487341E+03  0.17300000000E+03 0. -1.
         -6    1    1    2    0  503 -0.12730013494E+03 -0.78779117844E+02 -0.26014806621E+03  0.34643540541E+03  0.17300000000E+03 0.  1.
<mgrwt>
<rscale>  2 0.22878041E+03</rscale>
<asrwt>0</asrwt>
<pdfrwt beam="1">  1       21 0.22944844E-01 0.22878041E+03</pdfrwt>
<pdfrwt beam="2">  1       21 0.65652122E-01 0.22878041E+03</pdfrwt>
<totfact> 0.37337874E+04</totfact>
</mgrwt>
</event>
<event>
 4    1  0.4263413E+000  0.1903345E+03  0.7546771E-02  0.1158160E+00
         21   -1    0    0  503  502  0.00000000000E+00  0.00000000000E+00  0.39817023646E+03  0.39817023646E+03  0.00000000000E+00 0.  1.
         21   -1    0    0  501  503 -0.00000000000E+00 -0.00000000000E+00 -0.91356940332E+02  0.91356940332E+02  0.00000000000E+00 0. -1.
          6    1    1    2  501    0 -0.68639484264E+02 -0.39835049110E+02  0.13777282047E+03  0.23496501867E+03  0.17300000000E+03 0.  1.
         -6    1    1    2    0  502  0.68639484264E+02  0.39835049110E+02  0.16904047566E+03  0.25456215812E+03  0.17300000000E+03 0. -1.
<mgrwt>
<rscale>  2 0.19033447E+03</rscale>
<asrwt>0</asrwt>
<pdfrwt beam="1">  1       21 0.61256958E-01 0.19033447E+03</pdfrwt>
<pdfrwt beam="2">  1       21 0.14054914E-01 0.19033447E+03</pdfrwt>
<totfact> 0.10950902E+05</totfact>
</mgrwt>
</event>
<event>
 4    1  0.4263413E+000  0.2215841E+03  0.7546771E-02  0.1132707E+00
         21   -1    0    0  501  502  0.00000000000E+00  0.00000000000E+00  0.92205145658E+03  0.92205145658E+03  0.00000000000E+00 0.  1.
         21   -1    0    0  502  503 -0.00000000000E+00 -0.00000000000E+00 -0.54911047845E+02  0.54911047845E+02  0.00000000000E+00 0.  1.
          6    1    1    2  501    0  0.13521385308E+02 -0.13779588544E+03  0.34861941072E+03  0.41307992863E+03  0.17300000000E+03 0.  1.
         -6    1    1    2    0  503 -0.13521385308E+02  0.13779588544E+03  0.51852099802E+03  0.56388257580E+03  0.17300000000E+03 0.  1.
<mgrwt>
<rscale>  2 0.22158415E+03</rscale>
<asrwt>0</asrwt>
<pdfrwt beam="1">  1       21 0.14185406E+00 0.22158415E+03</pdfrwt>
<pdfrwt beam="2">  1       21 0.84478542E-02 0.22158415E+03</pdfrwt>
<totfact> 0.37122409E+04</totfact>
</mgrwt>
</event>
<event>
 4    1  0.4263413E+000  0.1793602E+03  0.7546771E-02  0.1168424E+00
         21   -1    0    0  501  502  0.00000000000E+00  0.00000000000E+00  0.10296308594E+03  0.10296308594E+03  0.00000000000E+00 0.  1.
         21   -1    0    0  502  503 -0.00000000000E+00 -0.00000000000E+00 -0.36939189182E+03  0.36939189182E+03  0.00000000000E+00 0.  1.
          6    1    1    2  501    0 -0.41512773127E+02  0.22754735901E+02 -0.40480673930E+02  0.18387162179E+03  0.17300000000E+03 0.  1.
         -6    1    1    2    0  503  0.41512773127E+02 -0.22754735901E+02 -0.22594813195E+03  0.28848335597E+03  0.17300000000E+03 0.  1.
<mgrwt>
<rscale>  2 0.17936022E+03</rscale>
<asrwt>0</asrwt>
<pdfrwt beam="1">  1       21 0.15840475E-01 0.17936022E+03</pdfrwt>
<pdfrwt beam="2">  1       21 0.56829523E-01 0.17936022E+03</pdfrwt>
<totfact> 0.10386378E+05</totfact>
</mgrwt>
</event>
<event>
 4    1  0.4263413E+000  0.1869286E+03  0.7546771E-02  0.1161261E+00
         21   -1    0    0  503  502  0.00000000000E+00  0.00000000000E+00  0.67545780318E+03  0.67545780318E+03  0.00000000000E+00 0.  1.
         21   -1    0    0  501  503 -0.00000000000E+00 -0.00000000000E+00 -0.64524121634E+02  0.64524121634E+02  0.00000000000E+00 0. -1.
          6    1    1    2  501    0  0.13365299771E+02  0.69531882069E+02  0.14072149773E+03  0.23397618209E+03  0.17300000000E+03 0. -1.
         -6    1    1    2    0  502 -0.13365299771E+02 -0.69531882069E+02  0.47021218381E+03  0.50600574272E+03  0.17300000000E+03 0.  1.
<mgrwt>
<rscale>  2 0.18692863E+03</rscale>
<asrwt>0</asrwt>
<pdfrwt beam="1">  1       21 0.10391658E+00 0.18692863E+03</pdfrwt>
<pdfrwt beam="2">  1       21 0.99267884E-02 0.18692863E+03</pdfrwt>
<totfact> 0.61740098E+04</totfact>
</mgrwt>
</event>
<event>
 4    1  0.4263413E+000  0.1860948E+03  0.7546771E-02  0.1162031E+00
         21   -1    0    0  501  502  0.00000000000E+00  0.00000000000E+00  0.90554011230E+02  0.90554011230E+02  0.00000000000E+00 0. -1.
         21   -1    0    0  502  503 -0.00000000000E+00 -0.00000000000E+00 -0.49319521928E+03  0.49319521928E+03  0.00000000000E+00 0. -1.
          6    1    1    2  501    0  0.37975171083E+02 -0.57097899871E+02 -0.63004368734E+02  0.19647095019E+03  0.17300000000E+03 0. -1.
         -6    1    1    2    0  503 -0.37975171083E+02  0.57097899871E+02 -0.33963683931E+03  0.38727828032E+03  0.17300000000E+03 0. -1.
<mgrwt>
<rscale>  2 0.18609482E+03</rscale>
<asrwt>0</asrwt>
<pdfrwt beam="1">  1       21 0.13931386E-01 0.18609482E+03</pdfrwt>
<pdfrwt beam="2">  1       21 0.75876189E-01 0.18609482E+03</pdfrwt>
<totfact> 0.69697275E+04</totfact>
</mgrwt>
</event>
<event>
 4    1  0.4263413E+000  0.2103329E+03  0.7546771E-02  0.1141303E+00
         21   -1    0    0  501  502  0.00000000000E+00  0.00000000000E+00  0.33110628006E+03  0.33110628006E+03  0.00000000000E+00 0.  1.
         21   -1    0    0  502  503 -0.00000000000E+00 -0.00000000000E+00 -0.45643454855E+03  0.45643454855E+03  0.00000000000E+00 0. -1.
          6    1    1    2  501    0 -0.54439307391E+02  0.10652366859E+03  0.26849400823E+03  0.34107031917E+03  0.17300000000E+03 0.  1.
         -6    1    1    2    0  503  0.54439307391E+02 -0.10652366859E+03 -0.39382227672E+03  0.44647050944E+03  0.17300000000E+03 0. -1.
<mgrwt>
<rscale>  2 0.21033290E+03</rscale>
<asrwt>0</asrwt>
<pdfrwt beam="1">  1       21 0.50939428E-01 0.21033290E+03</pdfrwt>
<pdfrwt beam="2">  1       21 0.70220700E-01 0.21033290E+03</pdfrwt>
<totfact> 0.66575286E+03</totfact>
</mgrwt>
</event>
<event>
 4    1  0.4263413E+000  0.2219744E+03  0.7546771E-02  0.1132420E+00
         21   -1    0    0  503  502  0.00000000000E+00  0.00000000000E+00  0.10639651205E+04  0.10639651205E+04  0.00000000000E+00 0.  1.
         21   -1    0    0  501  503 -0.00000000000E+00 -0.00000000000E+00 -0.74134020206E+02  0.74134020206E+02  0.00000000000E+00 0.  1.
          6    1    1    2  501    0 -0.60831705630E+02  0.12507250200E+03  0.14629875038E+03  0.26584949037E+03  0.17300000000E+03 0.  1.
         -6    1    1    2    0  502  0.60831705630E+02 -0.12507250200E+03  0.84353234991E+03  0.87224965034E+03  0.17300000000E+03 0.  1.
<mgrwt>
<rscale>  2 0.22197438E+03</rscale>
<asrwt>0</asrwt>
<pdfrwt beam="1">  1       21 0.16368693E+00 0.22197438E+03</pdfrwt>
<pdfrwt beam="2">  1       21 0.11405235E-01 0.22197438E+03</pdfrwt>
<totfact> 0.14896172E+04</totfact>
</mgrwt>
</event>
<event>
 4    1  0.4263413E+000  0.4640911E+03  0.7546771E-02  0.1023601E+00
         21   -1    0    0  501  502  0.00000000000E+00  0.00000000000E+00  0.10764355168E+04  0.10764355168E+04  0.00000000000E+00 0. -1.
         21   -1    0    0  502  503 -0.00000000000E+00 -0.00000000000E+00 -0.24998611693E+03  0.24998611693E+03  0.00000000000E+00 0. -1.
          6    1    1    2  501    0 -0.28073718106E+03  0.32655504325E+03  0.70953098416E+03  0.84782945135E+03  0.17300000000E+03 0. -1.
         -6    1    1    2    0  503  0.28073718106E+03 -0.32655504325E+03  0.11691841573E+03  0.47859218239E+03  0.17300000000E+03 0. -1.
<mgrwt>
<rscale>  2 0.46409111E+03</rscale>
<asrwt>0</asrwt>
<pdfrwt beam="1">  1       21 0.16560546E+00 0.46409111E+03</pdfrwt>
<pdfrwt beam="2">  1       21 0.38459403E-01 0.46409111E+03</pdfrwt>
<totfact> 0.12565530E+03</totfact>
</mgrwt>
</event>
<event>
 4    1  0.4263413E+000  0.1979961E+03  0.7546771E-02  0.1151441E+00
         21   -1    0    0  503  502  0.00000000000E+00  0.00000000000E+00  0.36211691606E+03  0.36211691606E+03  0.00000000000E+00 0. -1.
         21   -1    0    0  501  503 -0.00000000000E+00 -0.00000000000E+00 -0.13272858815E+03  0.13272858815E+03  0.00000000000E+00 0. -1.
          6    1    1    2  501    0 -0.41478903739E+02  0.86907705216E+02  0.84586053986E+01  0.19817668048E+03  0.17300000000E+03 0. -1.
         -6    1    1    2    0  502  0.41478903739E+02 -0.86907705216E+02  0.22092972251E+03  0.29666882373E+03  0.17300000000E+03 0. -1.
<mgrwt>
<rscale>  2 0.19799608E+03</rscale>
<asrwt>0</asrwt>
<pdfrwt beam="1">  1       21 0.55710294E-01 0.19799608E+03</pdfrwt>
<pdfrwt beam="2">  1       21 0.20419783E-01 0.19799608E+03</pdfrwt>
<totfact> 0.67238190E+04</totfact>
</mgrwt>
</event>
<event>
 4    1  0.4263413E+000  0.1845635E+03  0.7546771E-02  0.1163458E+00
         21   -1    0    0  501  502  0.00000000000E+00  0.00000000000E+00  0.71848122131E+03  0.71848122131E+03  0.00000000000E+00 0.  1.
         21   -1    0    0  502  503 -0.00000000000E+00 -0.00000000000E+00 -0.52648404785E+02  0.52648404785E+02  0.00000000000E+00 0. -1.
          6    1    1    2  501    0 -0.62014032110E+02  0.16998413019E+02  0.21130454250E+03  0.28055889917E+03  0.17300000000E+03 0. -1.
         -6    1    1    2    0  503  0.62014032110E+02 -0.16998413019E+02  0.45452827403E+03  0.49057072693E+03  0.17300000000E+03 0.  1.
<mgrwt>
<rscale>  2 0.18456350E+03</rscale>
<asrwt>0</asrwt>
<pdfrwt beam="1">  1       21 0.11053557E+00 0.18456350E+03</pdfrwt>
<pdfrwt beam="2">  1       21 0.80997551E-02 0.18456350E+03</pdfrwt>
<totfact> 0.76083001E+04</totfact>
</mgrwt>
</event>
<event>
 4    1  0.4263413E+000  0.1875166E+03  0.7546771E-02  0.1160720E+00
         21   -1    0    0  503  502  0.00000000000E+00  0.00000000000E+00  0.16008234140E+03  0.16008234140E+03  0.00000000000E+00 0.  1.
         21   -1    0    0  501  503 -0.00000000000E+00 -0.00000000000E+00 -0.30278232342E+03  0.30278232342E+03  0.00000000000E+00 0.  1.
          6    1    1    2  501    0 -0.37987740008E+02  0.61566319753E+02 -0.19261550354E+03  0.26881817707E+03  0.17300000000E+03 0.  1.
         -6    1    1    2    0  502  0.37987740008E+02 -0.61566319753E+02  0.49915521520E+02  0.19404648775E+03  0.17300000000E+03 0.  1.
<mgrwt>
<rscale>  2 0.18751661E+03</rscale>
<asrwt>0</asrwt>
<pdfrwt beam="1">  1       21 0.24628053E-01 0.18751661E+03</pdfrwt>
<pdfrwt beam="2">  1       21 0.46581896E-01 0.18751661E+03</pdfrwt>
<totfact> 0.68937373E+04</totfact>
</mgrwt>
</event>
<event>
 4    1  0.4263413E+000  0.2992517E+03  0.7546771E-02  0.1085615E+00
         21   -1    0    0  503  502  0.00000000000E+00  0.00000000000E+00  0.75907844454E+03  0.75907844454E+03  0.00000000000E+00 0. -1.
         21   -1    0    0  501  503 -0.00000000000E+00 -0.00000000000E+00 -0.23150925484E+03  0.23150925484E+03  0.00000000000E+00 0. -1.
          6    1    1    2  501    0  0.35527761860E+02 -0.24157885482E+03 -0.83067254122E+02  0.31056679421E+03  0.17300000000E+03 0. -1.
         -6    1    1    2    0  502 -0.35527761860E+02  0.24157885482E+03  0.61063644382E+03  0.68002090518E+03  0.17300000000E+03 0. -1.
<mgrwt>
<rscale>  2 0.29925167E+03</rscale>
<asrwt>0</asrwt>
<pdfrwt beam="1">  1       21 0.11678130E+00 0.29925167E+03</pdfrwt>
<pdfrwt beam="2">  1       21 0.35616809E-01 0.29925167E+03</pdfrwt>
<totfact> 0.39934825E+03</totfact>
</mgrwt>
</event>
<event>
 4    1  0.4263413E+000  0.4317220E+03  0.7546771E-02  0.1033317E+00
         21   -1    0    0  501  502  0.00000000000E+00  0.00000000000E+00  0.75413079479E+03  0.75413079479E+03  0.00000000000E+00 0.  1.
         21   -1    0    0  502  503 -0.00000000000E+00 -0.00000000000E+00 -0.24924192285E+03  0.24924192285E+03  0.00000000000E+00 0. -1.
          6    1    1    2  501    0 -0.18864004282E+03  0.34766331940E+03  0.29839980737E+03  0.52481072250E+03  0.17300000000E+03 0.  1.
         -6    1    1    2    0  503  0.18864004282E+03 -0.34766331940E+03  0.20648906457E+03  0.47856199514E+03  0.17300000000E+03 0. -1.
<mgrwt>
<rscale>  2 0.43172196E+03</rscale>
<asrwt>0</asrwt>
<pdfrwt beam="1">  1       21 0.11602012E+00 0.43172196E+03</pdfrwt>
<pdfrwt beam="2">  1       21 0.38344911E-01 0.43172196E+03</pdfrwt>
<totfact> 0.32933397E+03</totfact>
</mgrwt>
</event>
<event>
 4    1  0.4263413E+000  0.1884998E+03  0.7546771E-02  0.1159821E+00
         21   -1    0    0  503  502  0.00000000000E+00  0.00000000000E+00  0.52067584592E+02  0.52067584592E+02  0.00000000000E+00 0.  1.
         21   -1    0    0  501  503 -0.00000000000E+00 -0.00000000000E+00 -0.69179178908E+03  0.69179178908E+03  0.00000000000E+00 0.  1.
          6    1    1    2  501    0 -0.53990035985E+02  0.51848218864E+02 -0.36314288052E+03  0.40915145540E+03  0.17300000000E+03 0.  1.
         -6    1    1    2    0  502  0.53990035985E+02 -0.51848218864E+02 -0.27658132397E+03  0.33470791828E+03  0.17300000000E+03 0.  1.
<mgrwt>
<rscale>  2 0.18849977E+03</rscale>
<asrwt>0</asrwt>
<pdfrwt beam="1">  1       21 0.80103981E-02 0.18849977E+03</pdfrwt>
<pdfrwt beam="2">  1       21 0.10642950E+00 0.18849977E+03</pdfrwt>
<totfact> 0.84833480E+04</totfact>
</mgrwt>
</event>
<event>
 4    1  0.4263413E+000  0.1744137E+03  0.7546771E-02  0.1173322E+00
         21   -1    0    0  503  502  0.00000000000E+00  0.00000000000E+00  0.11193292570E+04  0.11193292570E+04  0.00000000000E+00 0. -1.
         21   -1    0    0  501  503 -0.00000000000E+00 -0.00000000000E+00 -0.30366765939E+02  0.30366765939E+02  0.00000000000E+00 0. -1.
          6    1    1    2  501    0  0.20326550695E+02  0.88301845526E+01  0.73078657903E+03  0.75131162969E+03  0.17300000000E+03 0.  1.
         -6    1    1    2    0  502 -0.20326550695E+02 -0.88301845526E+01  0.35817591203E+03  0.39838439325E+03  0.17300000000E+03 0.  1.
<mgrwt>
<rscale>  2 0.17441371E+03</rscale>
<asrwt>0</asrwt>
<pdfrwt beam="1">  1       21 0.17220447E+00 0.17441371E+03</pdfrwt>
<pdfrwt beam="2">  1       21 0.46718110E-02 0.17441371E+03</pdfrwt>
<totfact> 0.62799886E+04</totfact>
</mgrwt>
</event>
<event>
 4    1  0.4263413E+000  0.2309880E+03  0.7546771E-02  0.1125946E+00
         21   -1    0    0  501  502  0.00000000000E+00  0.00000000000E+00  0.60128160936E+03  0.60128160936E+03  0.00000000000E+00 0. -1.
         21   -1    0    0  502  503 -0.00000000000E+00 -0.00000000000E+00 -0.89503314977E+02  0.89503314977E+02  0.00000000000E+00 0. -1.
          6    1    1    2  501    0  0.53612267649E+02 -0.14336025072E+03  0.28786539408E+03  0.36908254068E+03  0.17300000000E+03 0. -1.
         -6    1    1    2    0  503 -0.53612267649E+02  0.14336025072E+03  0.22391290030E+03  0.32170238366E+03  0.17300000000E+03 0. -1.
<mgrwt>
<rscale>  2 0.23098796E+03</rscale>
<asrwt>0</asrwt>
<pdfrwt beam="1">  1       21 0.92504860E-01 0.23098796E+03</pdfrwt>
<pdfrwt beam="2">  1       21 0.13769741E-01 0.23098796E+03</pdfrwt>
<totfact> 0.44315208E+04</totfact>
</mgrwt>
</event>
<event>
 4    1  0.4263413E+000  0.1867389E+03  0.7546771E-02  0.1161436E+00
         21   -1    0    0  503  502  0.00000000000E+00  0.00000000000E+00  0.58202278416E+03  0.58202278416E+03  0.00000000000E+00 0.  1.
         21   -1    0    0  501  503 -0.00000000000E+00 -0.00000000000E+00 -0.67226960455E+02  0.67226960455E+02  0.00000000000E+00 0.  1.
          6    1    1    2  501    0 -0.58151297680E+02  0.39507531124E+02  0.15033198235E+03  0.23973135663E+03  0.17300000000E+03 0.  1.
         -6    1    1    2    0  502  0.58151297680E+02 -0.39507531124E+02  0.36446384135E+03  0.40951838798E+03  0.17300000000E+03 0.  1.
<mgrwt>
<rscale>  2 0.18673890E+03</rscale>
<asrwt>0</asrwt>
<pdfrwt beam="1">  1       21 0.89541963E-01 0.18673890E+03</pdfrwt>
<pdfrwt beam="2">  1       21 0.10342610E-01 0.18673890E+03</pdfrwt>
<totfact> 0.81477434E+04</totfact>
</mgrwt>
</event>
<event>
 4    1  0.4263413E+000  0.1904130E+03  0.7546771E-02  0.1158089E+00
         21   -1    0    0  501  502  0.00000000000E+00  0.00000000000E+00  0.40480252316E+03  0.40480252316E+03  0.00000000000E+00 0. -1.
         21   -1    0    0  502  503 -0.00000000000E+00 -0.00000000000E+00 -0.89656903814E+02  0.89656903814E+02  0.00000000000E+00 0. -1.
          6    1    1    2  501    0 -0.83466504498E+01  0.79110320001E+02  0.14976137480E+03  0.24225106540E+03  0.17300000000E+03 0. -1.
         -6    1    1    2    0  503  0.83466504498E+01 -0.79110320001E+02  0.16538424454E+03  0.25220836157E+03  0.17300000000E+03 0. -1.
<mgrwt>
<rscale>  2 0.19041300E+03</rscale>
<asrwt>0</asrwt>
<pdfrwt beam="1">  1       21 0.62277310E-01 0.19041300E+03</pdfrwt>
<pdfrwt beam="2">  1       21 0.13793370E-01 0.19041300E+03</pdfrwt>
<totfact> 0.10932656E+05</totfact>
</mgrwt>
</event>
<event>
 4    1  0.4263413E+000  0.1769337E+03  0.7546771E-02  0.1170804E+00
         21   -1    0    0  503  502  0.00000000000E+00  0.00000000000E+00  0.15184777800E+03  0.15184777800E+03  0.00000000000E+00 0. -1.
         21   -1    0    0  501  503 -0.00000000000E+00 -0.00000000000E+00 -0.22510931963E+03  0.22510931963E+03  0.00000000000E+00 0. -1.
          6    1    1    2  501    0 -0.36206503576E+02 -0.81013834996E+01 -0.91309235308E+02  0.19910529819E+03  0.17300000000E+03 0. -1.
         -6    1    1    2    0  502  0.36206503576E+02  0.81013834996E+01  0.18047693670E+02  0.17785179944E+03  0.17300000000E+03 0. -1.
<mgrwt>
<rscale>  2 0.17693373E+03</rscale>
<asrwt>0</asrwt>
<pdfrwt beam="1">  1       21 0.23361197E-01 0.17693373E+03</pdfrwt>
<pdfrwt beam="2">  1       21 0.34632203E-01 0.17693373E+03</pdfrwt>
<totfact> 0.13920466E+05</totfact>
</mgrwt>
</event>
<event>
 4    1  0.4263413E+000  0.1973226E+03  0.7546771E-02  0.1152018E+00
         21   -1    0    0  503  502  0.00000000000E+00  0.00000000000E+00  0.46340905249E+03  0.46340905249E+03  0.00000000000E+00 0.  1.
         21   -1    0    0  501  503 -0.00000000000E+00 -0.00000000000E+00 -0.12741092352E+03  0.12741092352E+03  0.00000000000E+00 0.  1.
          6    1    1    2  501    0 -0.53258534381E+02 -0.78553971411E+02 -0.43921549457E+01  0.19737144914E+03  0.17300000000E+03 0.  1.
         -6    1    1    2    0  502  0.53258534381E+02  0.78553971411E+02  0.34039028392E+03  0.39344852687E+03  0.17300000000E+03 0.  1.
<mgrwt>
<rscale>  2 0.19732257E+03</rscale>
<asrwt>0</asrwt>
<pdfrwt beam="1">  1       21 0.71293700E-01 0.19732257E+03</pdfrwt>
<pdfrwt beam="2">  1       21 0.19601681E-01 0.19732257E+03</pdfrwt>
<totfact> 0.42545076E+04</totfact>
</mgrwt>
</event>
<event>
 4    1  0.4263413E+000  0.2041491E+03  0.7546771E-02  0.1146285E+00
         21   -1    0    0  503  502  0.00000000000E+00  0.00000000000E+00  0.13126014881E+03  0.13126014881E+03  0.00000000000E+00 0.  1.
         21   -1    0    0  501  503 -0.00000000000E+00 -0.00000000000E+00 -0.34556013722E+03  0.34556013722E+03  0.00000000000E+00 0. -1.
          6    1    1    2  501    0  0.52498952606E+02  0.94824650643E+02 -0.17507101190E+03  0.26893626309E+03  0.17300000000E+03 0. -1.
         -6    1    1    2    0  502 -0.52498952606E+02 -0.94824650643E+02 -0.39228976504E+02  0.20788402294E+03  0.17300000000E+03 0.  1.
<mgrwt>
<rscale>  2 0.20414910E+03</rscale>
<asrwt>0</asrwt>
<pdfrwt beam="1">  1       21 0.20193869E-01 0.20414910E+03</pdfrwt>
<pdfrwt beam="2">  1       21 0.53163098E-01 0.20414910E+03</pdfrwt>
<totfact> 0.75585577E+04</totfact>
</mgrwt>
</event>
<event>
 4    1  0.4263413E+000  0.2914235E+03  0.7546771E-02  0.1089608E+00
         21   -1    0    0  501  502  0.00000000000E+00  0.00000000000E+00  0.12002611068E+03  0.12002611068E+03  0.00000000000E+00 0.  1.
         21   -1    0    0  502  503 -0.00000000000E+00 -0.00000000000E+00 -0.75819632624E+03  0.75819632624E+03  0.00000000000E+00 0. -1.
          6    1    1    2  501    0 -0.13368999912E+02  0.23413660893E+03 -0.20562503111E+03  0.35666417709E+03  0.17300000000E+03 0.  1.
         -6    1    1    2    0  503  0.13368999912E+02 -0.23413660893E+03 -0.43254518445E+03  0.52155825982E+03  0.17300000000E+03 0. -1.
<mgrwt>
<rscale>  2 0.29142354E+03</rscale>
<asrwt>0</asrwt>
<pdfrwt beam="1">  1       21 0.18465555E-01 0.29142354E+03</pdfrwt>
<pdfrwt beam="2">  1       21 0.11664559E+00 0.29142354E+03</pdfrwt>
<totfact> 0.14346024E+04</totfact>
</mgrwt>
</event>
<event>
 4    1  0.4263413E+000  0.2082807E+03  0.7546771E-02  0.1142935E+00
         21   -1    0    0  503  502  0.00000000000E+00  0.00000000000E+00  0.11605850116E+04  0.11605850116E+04  0.00000000000E+00 0.  1.
         21   -1    0    0  501  503 -0.00000000000E+00 -0.00000000000E+00 -0.56907536968E+02  0.56907536968E+02  0.00000000000E+00 0.  1.
          6    1    1    2  501    0  0.11234504258E+03 -0.28817483272E+02  0.19522956055E+03  0.28547405705E+03  0.17300000000E+03 0.  1.
         -6    1    1    2    0  502 -0.11234504258E+03  0.28817483272E+02  0.90844791412E+03  0.93201849156E+03  0.17300000000E+03 0.  1.
<mgrwt>
<rscale>  2 0.20828071E+03</rscale>
<asrwt>0</asrwt>
<pdfrwt beam="1">  1       21 0.17855152E+00 0.20828071E+03</pdfrwt>
<pdfrwt beam="2">  1       21 0.87550065E-02 0.20828071E+03</pdfrwt>
<totfact> 0.18871495E+04</totfact>
</mgrwt>
</event>
<event>
 4    1  0.4263413E+000  0.2116899E+03  0.7546771E-02  0.1140235E+00
         21   -1    0    0  503  502  0.00000000000E+00  0.00000000000E+00  0.20593881028E+02  0.20593881028E+02  0.00000000000E+00 0. -1.
         21   -1    0    0  501  503 -0.00000000000E+00 -0.00000000000E+00 -0.25010528450E+04  0.25010528450E+04  0.00000000000E+00 0. -1.
          6    1    1    2  501    0  0.10662197317E+03 -0.59290664615E+02 -0.78570354145E+03  0.81372150219E+03  0.17300000000E+03 0. -1.
         -6    1    1    2    0  502 -0.10662197317E+03  0.59290664615E+02 -0.16947554226E+04  0.17079252239E+04  0.17300000000E+03 0. -1.
<mgrwt>
<rscale>  2 0.21168993E+03</rscale>
<asrwt>0</asrwt>
<pdfrwt beam="1">  1       21 0.31682912E-02 0.21168993E+03</pdfrwt>
<pdfrwt beam="2">  1       21 0.38477714E+00 0.21168993E+03</pdfrwt>
<totfact> 0.61032864E+03</totfact>
</mgrwt>
</event>
<event>
 4    1  0.4263413E+000  0.1792866E+03  0.7546771E-02  0.1168495E+00
         21   -1    0    0  501  502  0.00000000000E+00  0.00000000000E+00  0.18804440927E+03  0.18804440927E+03  0.00000000000E+00 0.  1.
         21   -1    0    0  502  503 -0.00000000000E+00 -0.00000000000E+00 -0.17419174367E+03  0.17419174367E+03  0.00000000000E+00 0.  1.
          6    1    1    2  501    0  0.45664219265E+02  0.11377439641E+02  0.31685431933E+02  0.18206491603E+03  0.17300000000E+03 0.  1.
         -6    1    1    2    0  503 -0.45664219265E+02 -0.11377439641E+02 -0.17832766327E+02  0.18017123691E+03  0.17300000000E+03 0.  1.
<mgrwt>
<rscale>  2 0.17928655E+03</rscale>
<asrwt>0</asrwt>
<pdfrwt beam="1">  1       21 0.28929909E-01 0.17928655E+03</pdfrwt>
<pdfrwt beam="2">  1       21 0.26798730E-01 0.17928655E+03</pdfrwt>
<totfact> 0.15227762E+05</totfact>
</mgrwt>
</event>
<event>
 4    1  0.4263413E+000  0.2342738E+03  0.7546771E-02  0.1123667E+00
         21   -1    0    0  503  502  0.00000000000E+00  0.00000000000E+00  0.38367456351E+03  0.38367456351E+03  0.00000000000E+00 0.  1.
         21   -1    0    0  501  503 -0.00000000000E+00 -0.00000000000E+00 -0.32472866356E+03  0.32472866356E+03  0.00000000000E+00 0. -1.
          6    1    1    2  501    0  0.91453525693E+02  0.12880790783E+03 -0.23546459035E+03  0.33215628519E+03  0.17300000000E+03 0. -1.
         -6    1    1    2    0  502 -0.91453525693E+02 -0.12880790783E+03  0.29441049029E+03  0.37624694188E+03  0.17300000000E+03 0.  1.
<mgrwt>
<rscale>  2 0.23427382E+03</rscale>
<asrwt>0</asrwt>
<pdfrwt beam="1">  1       21 0.59026856E-01 0.23427382E+03</pdfrwt>
<pdfrwt beam="2">  1       21 0.49958256E-01 0.23427382E+03</pdfrwt>
<totfact> 0.99717748E+03</totfact>
</mgrwt>
</event>
<event>
 4    1  0.4263413E+000  0.1794839E+03  0.7546771E-02  0.1168303E+00
         21   -1    0    0  501  502  0.00000000000E+00  0.00000000000E+00  0.26469922782E+02  0.26469922782E+02  0.00000000000E+00 0.  1.
         21   -1    0    0  502  503 -0.00000000000E+00 -0.00000000000E+00 -0.18934684775E+04  0.18934684775E+04  0.00000000000E+00 0. -1.
          6    1    1    2  501    0  0.31710146129E+02 -0.35776363717E+02 -0.35971989257E+03  0.40201104795E+03  0.17300000000E+03 0.  1.
         -6    1    1    2    0  503 -0.31710146129E+02  0.35776363717E+02 -0.15072786621E+04  0.15179273523E+04  0.17300000000E+03 0. -1.
<mgrwt>
<rscale>  2 0.17948393E+03</rscale>
<asrwt>0</asrwt>
<pdfrwt beam="1">  1       21 0.40722940E-02 0.17948393E+03</pdfrwt>
<pdfrwt beam="2">  1       21 0.29130298E+00 0.17948393E+03</pdfrwt>
<totfact> 0.14767384E+04</totfact>
</mgrwt>
</event>
<event>
 4    1  0.4263413E+000  0.1966227E+03  0.7546771E-02  0.1152620E+00
         21   -1    0    0  501  502  0.00000000000E+00  0.00000000000E+00  0.18425708359E+03  0.18425708359E+03  0.00000000000E+00 0.  1.
         21   -1    0    0  502  503 -0.00000000000E+00 -0.00000000000E+00 -0.36437988134E+03  0.36437988134E+03  0.00000000000E+00 0.  1.
          6    1    1    2  501    0 -0.61066724813E+02  0.70727296958E+02  0.88599184209E+02  0.21566249293E+03  0.17300000000E+03 0.  1.
         -6    1    1    2    0  503  0.61066724813E+02 -0.70727296958E+02 -0.26872198196E+03  0.33297447200E+03  0.17300000000E+03 0.  1.
<mgrwt>
<rscale>  2 0.19662272E+03</rscale>
<asrwt>0</asrwt>
<pdfrwt beam="1">  1       21 0.28347244E-01 0.19662272E+03</pdfrwt>
<pdfrwt beam="2">  1       21 0.56058443E-01 0.19662272E+03</pdfrwt>
<totfact> 0.35563709E+04</totfact>
</mgrwt>
</event>
<event>
 4    1  0.4263413E+000  0.2972189E+03  0.7546771E-02  0.1086639E+00
         21   -1    0    0  501  502  0.00000000000E+00  0.00000000000E+00  0.21238161361E+03  0.21238161361E+03  0.00000000000E+00 0.  1.
         21   -1    0    0  502  503 -0.00000000000E+00 -0.00000000000E+00 -0.42334994775E+03  0.42334994775E+03  0.00000000000E+00 0. -1.
          6    1    1    2  501    0  0.24156301575E+03  0.75769773813E+01 -0.63445323968E+02  0.30391513667E+03  0.17300000000E+03 0.  1.
         -6    1    1    2    0  503 -0.24156301575E+03 -0.75769773813E+01 -0.14752301017E+03  0.33181642469E+03  0.17300000000E+03 0.  1.
<mgrwt>
<rscale>  2 0.29721894E+03</rscale>
<asrwt>0</asrwt>
<pdfrwt beam="1">  1       21 0.32674095E-01 0.29721894E+03</pdfrwt>
<pdfrwt beam="2">  1       21 0.65130761E-01 0.29721894E+03</pdfrwt>
<totfact> 0.18556433E+04</totfact>
</mgrwt>
</event>
<event>
 4    1  0.4263413E+000  0.2332754E+03  0.7546771E-02  0.1124355E+00
         21   -1    0    0  503  502  0.00000000000E+00  0.00000000000E+00  0.95413269881E+02  0.95413269881E+02  0.00000000000E+00 0.  1.
         21   -1    0    0  501  503 -0.00000000000E+00 -0.00000000000E+00 -0.76746650216E+03  0.76746650216E+03  0.00000000000E+00 0.  1.
          6    1    1    2  501    0  0.86165780056E+02 -0.13062870722E+03 -0.55468697370E+03  0.60174333365E+03  0.17300000000E+03 0.  1.
         -6    1    1    2    0  502 -0.86165780056E+02  0.13062870722E+03 -0.11736625858E+03  0.26113643839E+03  0.17300000000E+03 0.  1.
<mgrwt>
<rscale>  2 0.23327538E+03</rscale>
<asrwt>0</asrwt>
<pdfrwt beam="1">  1       21 0.14678965E-01 0.23327538E+03</pdfrwt>
<pdfrwt beam="2">  1       21 0.11807177E+00 0.23327538E+03</pdfrwt>
<totfact> 0.21897164E+04</totfact>
</mgrwt>
</event>
<event>
 4    1  0.4263413E+000  0.2820220E+03  0.7546771E-02  0.1094590E+00
         21   -1    0    0  503  502  0.00000000000E+00  0.00000000000E+00  0.77471618036E+03  0.77471618036E+03  0.00000000000E+00 0.  1.
         21   -1    0    0  501  503 -0.00000000000E+00 -0.00000000000E+00 -0.10338216607E+03  0.10338216607E+03  0.00000000000E+00 0.  1.
          6    1    1    2  501    0  0.13195168232E+03  0.17943295788E+03  0.29910554721E+03  0.41109677841E+03  0.17300000000E+03 0.  1.
         -6    1    1    2    0  502 -0.13195168232E+03 -0.17943295788E+03  0.37222846707E+03  0.46700156803E+03  0.17300000000E+03 0.  1.
<mgrwt>
<rscale>  2 0.28202204E+03</rscale>
<asrwt>0</asrwt>
<pdfrwt beam="1">  1       21 0.11918710E+00 0.28202204E+03</pdfrwt>
<pdfrwt beam="2">  1       21 0.15904949E-01 0.28202204E+03</pdfrwt>
<totfact> 0.18020107E+04</totfact>
</mgrwt>
</event>
<event>
 4    1  0.4263413E+000  0.2133624E+03  0.7546771E-02  0.1138931E+00
         21   -1    0    0  501  502  0.00000000000E+00  0.00000000000E+00  0.12462528675E+04  0.12462528675E+04  0.00000000000E+00 0.  1.
         21   -1    0    0  502  503 -0.00000000000E+00 -0.00000000000E+00 -0.41566865046E+02  0.41566865046E+02  0.00000000000E+00 0. -1.
          6    1    1    2  501    0 -0.52048457336E+01 -0.12476940122E+03  0.37815878026E+03  0.43419760132E+03  0.17300000000E+03 0. -1.
         -6    1    1    2    0  503  0.52048457336E+01  0.12476940122E+03  0.82652722221E+03  0.85362213125E+03  0.17300000000E+03 0.  1.
<mgrwt>
<rscale>  2 0.21336235E+03</rscale>
<asrwt>0</asrwt>
<pdfrwt beam="1">  1       21 0.19173118E+00 0.21336235E+03</pdfrwt>
<pdfrwt beam="2">  1       21 0.63949033E-02 0.21336235E+03</pdfrwt>
<totfact> 0.26472033E+04</totfact>
</mgrwt>
</event>
<event>
 4    1  0.4263413E+000  0.2377564E+03  0.7546771E-02  0.1121297E+00
         21   -1    0    0  503  502  0.00000000000E+00  0.00000000000E+00  0.17627426577E+03  0.17627426577E+03  0.00000000000E+00 0.  1.
         21   -1    0    0  501  503 -0.00000000000E+00 -0.00000000000E+00 -0.32408552393E+03  0.32408552393E+03  0.00000000000E+00 0. -1.
          6    1    1    2  501    0  0.26424473309E+02 -0.16093740210E+03 -0.99541316803E+02  0.25775293196E+03  0.17300000000E+03 0.  1.
         -6    1    1    2    0  502 -0.26424473309E+02  0.16093740210E+03 -0.48269941356E+02  0.24260685774E+03  0.17300000000E+03 0.  1.
<mgrwt>
<rscale>  2 0.23775639E+03</rscale>
<asrwt>0</asrwt>
<pdfrwt beam="1">  1       21 0.27119118E-01 0.23775639E+03</pdfrwt>
<pdfrwt beam="2">  1       21 0.49859311E-01 0.23775639E+03</pdfrwt>
<totfact> 0.48650545E+04</totfact>
</mgrwt>
</event>
<event>
 4    1  0.4263413E+000  0.3086169E+03  0.7546771E-02  0.1081011E+00
         21   -1    0    0  503  502  0.00000000000E+00  0.00000000000E+00  0.56475458487E+02  0.56475458487E+02  0.00000000000E+00 0.  1.
         21   -1    0    0  501  503 -0.00000000000E+00 -0.00000000000E+00 -0.17583478462E+04  0.17583478462E+04  0.00000000000E+00 0. -1.
          6    1    1    2  501    0 -0.24651323775E+02  0.25437711637E+03 -0.10343942204E+04  0.10794516239E+04  0.17300000000E+03 0.  1.
         -6    1    1    2    0  502  0.24651323775E+02 -0.25437711637E+03 -0.66747816732E+03  0.73537168082E+03  0.17300000000E+03 0. -1.
<mgrwt>
<rscale>  2 0.30861692E+03</rscale>
<asrwt>0</asrwt>
<pdfrwt beam="1">  1       21 0.86885332E-02 0.30861692E+03</pdfrwt>
<pdfrwt beam="2">  1       21 0.27051502E+00 0.30861692E+03</pdfrwt>
<totfact> 0.47494003E+03</totfact>
</mgrwt>
</event>
<event>
 4    1  0.4263413E+000  0.2043056E+03  0.7546771E-02  0.1146156E+00
         21   -1    0    0  503  502  0.00000000000E+00  0.00000000000E+00  0.31595369772E+03  0.31595369772E+03  0.00000000000E+00 0.  1.
         21   -1    0    0  501  503 -0.00000000000E+00 -0.00000000000E+00 -0.13943297816E+03  0.13943297816E+03  0.00000000000E+00 0.  1.
          6    1    1    2  501    0  0.60981769351E+02 -0.89961109801E+02  0.14043972857E+03  0.24791953298E+03  0.17300000000E+03 0.  1.
         -6    1    1    2    0  502 -0.60981769351E+02  0.89961109801E+02  0.36080990987E+02  0.20746714289E+03  0.17300000000E+03 0.  1.
<mgrwt>
<rscale>  2 0.20430560E+03</rscale>
<asrwt>0</asrwt>
<pdfrwt beam="1">  1       21 0.48608261E-01 0.20430560E+03</pdfrwt>
<pdfrwt beam="2">  1       21 0.21451228E-01 0.20430560E+03</pdfrwt>
<totfact> 0.81393745E+04</totfact>
</mgrwt>
</event>
<event>
 4    1  0.4263413E+000  0.2267035E+03  0.7546771E-02  0.1128982E+00
         21   -1    0    0  501  502  0.00000000000E+00  0.00000000000E+00  0.42340507708E+02  0.42340507708E+02  0.00000000000E+00 0. -1.
         21   -1    0    0  502  503 -0.00000000000E+00 -0.00000000000E+00 -0.12144447227E+04  0.12144447227E+04  0.00000000000E+00 0.  1.
          6    1    1    2  501    0 -0.13199237262E+03 -0.63588361100E+02 -0.60011157276E+03  0.64150476682E+03  0.17300000000E+03 0. -1.
         -6    1    1    2    0  503  0.13199237262E+03  0.63588361100E+02 -0.57199264219E+03  0.61528046355E+03  0.17300000000E+03 0.  1.
<mgrwt>
<rscale>  2 0.22670348E+03</rscale>
<asrwt>0</asrwt>
<pdfrwt beam="1">  1       21 0.65139252E-02 0.22670348E+03</pdfrwt>
<pdfrwt beam="2">  1       21 0.18683762E+00 0.22670348E+03</pdfrwt>
<totfact> 0.27398479E+04</totfact>
</mgrwt>
</event>
<event>
 4    1  0.4263413E+000  0.2428125E+03  0.7546771E-02  0.1117933E+00
         21   -1    0    0  503  502  0.00000000000E+00  0.00000000000E+00  0.37613303480E+02  0.37613303480E+02  0.00000000000E+00 0. -1.
         21   -1    0    0  501  503 -0.00000000000E+00 -0.00000000000E+00 -0.15811311891E+04  0.15811311891E+04  0.00000000000E+00 0. -1.
          6    1    1    2  501    0  0.11909443060E+03  0.12184185326E+03 -0.84697764687E+03  0.88109537220E+03  0.17300000000E+03 0.  1.
         -6    1    1    2    0  502 -0.11909443060E+03 -0.12184185326E+03 -0.69654023877E+03  0.73764912040E+03  0.17300000000E+03 0.  1.
<mgrwt>
<rscale>  2 0.24281252E+03</rscale>
<asrwt>0</asrwt>
<pdfrwt beam="1">  1       21 0.57866630E-02 0.24281252E+03</pdfrwt>
<pdfrwt beam="2">  1       21 0.24325091E+00 0.24281252E+03</pdfrwt>
<totfact> 0.14676954E+04</totfact>
</mgrwt>
</event>
<event>
 4    1  0.4263413E+000  0.1894435E+03  0.7546771E-02  0.1158964E+00
         21   -1    0    0  503  502  0.00000000000E+00  0.00000000000E+00  0.12682729232E+03  0.12682729232E+03  0.00000000000E+00 0. -1.
         21   -1    0    0  501  503 -0.00000000000E+00 -0.00000000000E+00 -0.32725851419E+03  0.32725851419E+03  0.00000000000E+00 0. -1.
          6    1    1    2  501    0  0.62388756826E+02 -0.45469733216E+02 -0.18373500550E+03  0.26390794960E+03  0.17300000000E+03 0. -1.
         -6    1    1    2    0  502 -0.62388756826E+02  0.45469733216E+02 -0.16696216369E+02  0.19017785691E+03  0.17300000000E+03 0. -1.
<mgrwt>
<rscale>  2 0.18944354E+03</rscale>
<asrwt>0</asrwt>
<pdfrwt beam="1">  1       21 0.19511891E-01 0.18944354E+03</pdfrwt>
<pdfrwt beam="2">  1       21 0.50347464E-01 0.18944354E+03</pdfrwt>
<totfact> 0.90900466E+04</totfact>
</mgrwt>
</event>
<event>
 4    1  0.4263413E+000  0.2240060E+03  0.7546771E-02  0.1130931E+00
         21   -1    0    0  501  502  0.00000000000E+00  0.00000000000E+00  0.59110284980E+03  0.59110284980E+03  0.00000000000E+00 0.  1.
         21   -1    0    0  502  503 -0.00000000000E+00 -0.00000000000E+00 -0.91868951590E+02  0.91868951590E+02  0.00000000000E+00 0.  1.
          6    1    1    2  501    0 -0.10508918170E+03 -0.95947674132E+02  0.34373761635E+03  0.41028556053E+03  0.17300000000E+03 0.  1.
         -6    1    1    2    0  503  0.10508918170E+03  0.95947674132E+02  0.15549628185E+03  0.27268624086E+03  0.17300000000E+03 0.  1.
<mgrwt>
<rscale>  2 0.22400601E+03</rscale>
<asrwt>0</asrwt>
<pdfrwt beam="1">  1       21 0.90938898E-01 0.22400601E+03</pdfrwt>
<pdfrwt beam="2">  1       21 0.14133685E-01 0.22400601E+03</pdfrwt>
<totfact> 0.44125000E+04</totfact>
</mgrwt>
</event>
<event>
 4    1  0.4263413E+000  0.1881775E+03  0.7546771E-02  0.1160115E+00
         21   -1    0    0  501  502  0.00000000000E+00  0.00000000000E+00  0.37574477471E+02  0.37574477471E+02  0.00000000000E+00 0.  1.
         21   -1    0    0  502  503 -0.00000000000E+00 -0.00000000000E+00 -0.10378823926E+04  0.10378823926E+04  0.00000000000E+00 0.  1.
          6    1    1    2  501    0 -0.60033963740E+02 -0.43332531750E+02 -0.33706881133E+03  0.38603907662E+03  0.17300000000E+03 0.  1.
         -6    1    1    2    0  503  0.60033963740E+02  0.43332531750E+02 -0.66323910377E+03  0.68941779341E+03  0.17300000000E+03 0.  1.
<mgrwt>
<rscale>  2 0.18817754E+03</rscale>
<asrwt>0</asrwt>
<pdfrwt beam="1">  1       21 0.57806884E-02 0.18817754E+03</pdfrwt>
<pdfrwt beam="2">  1       21 0.15967423E+00 0.18817754E+03</pdfrwt>
<totfact> 0.53317892E+04</totfact>
</mgrwt>
</event>
<event>
 4    1  0.4263413E+000  0.2387572E+03  0.7546771E-02  0.1120623E+00
         21   -1    0    0  501  502  0.00000000000E+00  0.00000000000E+00  0.10060078559E+04  0.10060078559E+04  0.00000000000E+00 0.  1.
         21   -1    0    0  502  503 -0.00000000000E+00 -0.00000000000E+00 -0.78067321012E+02  0.78067321012E+02  0.00000000000E+00 0. -1.
          6    1    1    2  501    0 -0.12784237438E+03  0.10359703906E+03  0.74778138139E+03  0.78497261961E+03  0.17300000000E+03 0.  1.
         -6    1    1    2    0  503  0.12784237438E+03 -0.10359703906E+03  0.18015915349E+03  0.29910255729E+03  0.17300000000E+03 0. -1.
<mgrwt>
<rscale>  2 0.23875724E+03</rscale>
<asrwt>0</asrwt>
<pdfrwt beam="1">  1       21 0.15477043E+00 0.23875724E+03</pdfrwt>
<pdfrwt beam="2">  1       21 0.12010358E-01 0.23875724E+03</pdfrwt>
<totfact> 0.15638905E+04</totfact>
</mgrwt>
</event>
<event>
 4    1  0.4263413E+000  0.1772016E+03  0.7546771E-02  0.1170539E+00
         21   -1    0    0  503  502  0.00000000000E+00  0.00000000000E+00  0.12419258036E+03  0.12419258036E+03  0.00000000000E+00 0.  1.
         21   -1    0    0  501  503 -0.00000000000E+00 -0.00000000000E+00 -0.30639939192E+03  0.30639939192E+03  0.00000000000E+00 0.  1.
          6    1    1    2  501    0 -0.11203159440E+02  0.36686698717E+02 -0.18112024385E+03  0.25338699134E+03  0.17300000000E+03 0.  1.
         -6    1    1    2    0  502  0.11203159440E+02 -0.36686698717E+02 -0.10865677081E+01  0.17720498095E+03  0.17300000000E+03 0.  1.
<mgrwt>
<rscale>  2 0.17720165E+03</rscale>
<asrwt>0</asrwt>
<pdfrwt beam="1">  1       21 0.19106551E-01 0.17720165E+03</pdfrwt>
<pdfrwt beam="2">  1       21 0.47138368E-01 0.17720165E+03</pdfrwt>
<totfact> 0.10886168E+05</totfact>
</mgrwt>
</event>
<event>
 4    1  0.4263413E+000  0.2146151E+03  0.7546771E-02  0.1137963E+00
         21   -1    0    0  501  502  0.00000000000E+00  0.00000000000E+00  0.76044427271E+03  0.76044427271E+03  0.00000000000E+00 0.  1.
         21   -1    0    0  502  503 -0.00000000000E+00 -0.00000000000E+00 -0.64096480998E+02  0.64096480998E+02  0.00000000000E+00 0.  1.
          6    1    1    2  501    0  0.96466184310E+02  0.82612925758E+02  0.44488479797E+03  0.49394544606E+03  0.17300000000E+03 0.  1.
         -6    1    1    2    0  503 -0.96466184310E+02 -0.82612925758E+02  0.25146299374E+03  0.33059530765E+03  0.17300000000E+03 0.  1.
<mgrwt>
<rscale>  2 0.21461505E+03</rscale>
<asrwt>0</asrwt>
<pdfrwt beam="1">  1       21 0.11699142E+00 0.21461505E+03</pdfrwt>
<pdfrwt beam="2">  1       21 0.98609976E-02 0.21461505E+03</pdfrwt>
<totfact> 0.46222090E+04</totfact>
</mgrwt>
</event>
<event>
 4    1  0.4263413E+000  0.2589323E+03  0.7546771E-02  0.1107786E+00
         21   -1    0    0  501  502  0.00000000000E+00  0.00000000000E+00  0.20450208755E+04  0.20450208755E+04  0.00000000000E+00 0.  1.
         21   -1    0    0  502  503 -0.00000000000E+00 -0.00000000000E+00 -0.34118089439E+02  0.34118089439E+02  0.00000000000E+00 0.  1.
          6    1    1    2  501    0 -0.15587685930E+03 -0.11322254195E+03  0.12109440939E+04  0.12383180277E+04  0.17300000000E+03 0.  1.
         -6    1    1    2    0  503  0.15587685930E+03  0.11322254195E+03  0.79995869220E+03  0.84082093724E+03  0.17300000000E+03 0.  1.
<mgrwt>
<rscale>  2 0.25893231E+03</rscale>
<asrwt>0</asrwt>
<pdfrwt beam="1">  1       21 0.31461850E+00 0.25893231E+03</pdfrwt>
<pdfrwt beam="2">  1       21 0.52489384E-02 0.25893231E+03</pdfrwt>
<totfact> 0.65157407E+03</totfact>
</mgrwt>
</event>
<event>
 4    1  0.4263413E+000  0.1799230E+03  0.7546771E-02  0.1167878E+00
         21   -1    0    0  501  502  0.00000000000E+00  0.00000000000E+00  0.17086700475E+02  0.17086700475E+02  0.00000000000E+00 0. -1.
         21   -1    0    0  502  503 -0.00000000000E+00 -0.00000000000E+00 -0.19039894224E+04  0.19039894224E+04  0.00000000000E+00 0. -1.
          6    1    1    2  501    0 -0.18239181637E+02  0.45941331964E+02 -0.87595856810E+03  0.89424587601E+03  0.17300000000E+03 0. -1.
         -6    1    1    2    0  503  0.18239181637E+02 -0.45941331964E+02 -0.10109441538E+04  0.10268302468E+04  0.17300000000E+03 0. -1.
<mgrwt>
<rscale>  2 0.17992297E+03</rscale>
<asrwt>0</asrwt>
<pdfrwt beam="1">  1       21 0.26287251E-02 0.17992297E+03</pdfrwt>
<pdfrwt beam="2">  1       21 0.29292124E+00 0.17992297E+03</pdfrwt>
<totfact> 0.29866140E+04</totfact>
</mgrwt>
</event>
<event>
 4    1  0.4263413E+000  0.3028171E+03  0.7546771E-02  0.1083841E+00
         21   -1    0    0  503  502  0.00000000000E+00  0.00000000000E+00  0.18900387894E+03  0.18900387894E+03  0.00000000000E+00 0. -1.
         21   -1    0    0  501  503 -0.00000000000E+00 -0.00000000000E+00 -0.76867622421E+03  0.76867622421E+03  0.00000000000E+00 0. -1.
          6    1    1    2  501    0  0.21224991141E+03  0.12930254213E+03 -0.58064222868E+03  0.65486148918E+03  0.17300000000E+03 0. -1.
         -6    1    1    2    0  502 -0.21224991141E+03 -0.12930254213E+03  0.96988340179E+00  0.30281861397E+03  0.17300000000E+03 0. -1.
<mgrwt>
<rscale>  2 0.30281706E+03</rscale>
<asrwt>0</asrwt>
<pdfrwt beam="1">  1       21 0.29077519E-01 0.30281706E+03</pdfrwt>
<pdfrwt beam="2">  1       21 0.11825788E+00 0.30281706E+03</pdfrwt>
<totfact> 0.57804028E+03</totfact>
</mgrwt>
</event>
<event>
 4    1  0.4263413E+000  0.1734910E+03  0.7546771E-02  0.1174255E+00
         21   -1    0    0  503  502  0.00000000000E+00  0.00000000000E+00  0.11734366269E+04  0.11734366269E+04  0.00000000000E+00 0. -1.
         21   -1    0    0  501  503 -0.00000000000E+00 -0.00000000000E+00 -0.26593217332E+02  0.26593217332E+02  0.00000000000E+00 0. -1.
          6    1    1    2  501    0 -0.12895345298E+02  0.19612796924E+01  0.46044551706E+03  0.49204594372E+03  0.17300000000E+03 0.  1.
         -6    1    1    2    0  502  0.12895345298E+02 -0.19612796924E+01  0.68639789250E+03  0.70798390050E+03  0.17300000000E+03 0.  1.
<mgrwt>
<rscale>  2 0.17349103E+03</rscale>
<asrwt>0</asrwt>
<pdfrwt beam="1">  1       21 0.18052867E+00 0.17349103E+03</pdfrwt>
<pdfrwt beam="2">  1       21 0.40912651E-02 0.17349103E+03</pdfrwt>
<totfact> 0.68857812E+04</totfact>
</mgrwt>
</event>
<event>
 4    1  0.4263413E+000  0.1750668E+03  0.7546771E-02  0.1172665E+00
         21   -1    0    0  501  502  0.00000000000E+00  0.00000000000E+00  0.21491856439E+04  0.21491856439E+04  0.00000000000E+00 0. -1.
         21   -1    0    0  502  503 -0.00000000000E+00 -0.00000000000E+00 -0.26702369253E+02  0.26702369253E+02  0.00000000000E+00 0. -1.
          6    1    1    2  501    0  0.86948764105E+01  0.25372608096E+02  0.18038762846E+04  0.18123515167E+04  0.17300000000E+03 0. -1.
         -6    1    1    2    0  503 -0.86948764105E+01 -0.25372608096E+02  0.31860699011E+03  0.36353649647E+03  0.17300000000E+03 0. -1.
<mgrwt>
<rscale>  2 0.17506676E+03</rscale>
<asrwt>0</asrwt>
<pdfrwt beam="1">  1       21 0.33064381E+00 0.17506676E+03</pdfrwt>
<pdfrwt beam="2">  1       21 0.41080585E-02 0.17506676E+03</pdfrwt>
<totfact> 0.86921557E+03</totfact>
</mgrwt>
</event>
<event>
 4    1  0.4263413E+000  0.2740903E+03  0.7546771E-02  0.1098961E+00
         21   -1    0    0  501  502  0.00000000000E+00  0.00000000000E+00  0.75903758273E+03  0.75903758273E+03  0.00000000000E+00 0. -1.
         21   -1    0    0  502  503 -0.00000000000E+00 -0.00000000000E+00 -0.22378555931E+03  0.22378555931E+03  0.00000000000E+00 0.  1.
          6    1    1    2  501    0 -0.16689334446E+03  0.13169317855E+03  0.63461718319E+03  0.69127740518E+03  0.17300000000E+03 0. -1.
         -6    1    1    2    0  503  0.16689334446E+03 -0.13169317855E+03 -0.99365159773E+02  0.29154573686E+03  0.17300000000E+03 0.  1.
<mgrwt>
<rscale>  2 0.27409028E+03</rscale>
<asrwt>0</asrwt>
<pdfrwt beam="1">  1       21 0.11677501E+00 0.27409028E+03</pdfrwt>
<pdfrwt beam="2">  1       21 0.34428548E-01 0.27409028E+03</pdfrwt>
<totfact> 0.43360287E+03</totfact>
</mgrwt>
</event>
<event>
 4    1  0.4263413E+000  0.1873872E+03  0.7546771E-02  0.1160839E+00
         21   -1    0    0  503  502  0.00000000000E+00  0.00000000000E+00  0.54031956978E+03  0.54031956978E+03  0.00000000000E+00 0. -1.
         21   -1    0    0  501  503 -0.00000000000E+00 -0.00000000000E+00 -0.11560715255E+03  0.11560715255E+03  0.00000000000E+00 0. -1.
          6    1    1    2  501    0  0.69661401869E+02 -0.18228198843E+02 -0.46603504123E+01  0.18744518401E+03  0.17300000000E+03 0. -1.
         -6    1    1    2    0  502 -0.69661401869E+02  0.18228198843E+02  0.42937276764E+03  0.46848153831E+03  0.17300000000E+03 0. -1.
<mgrwt>
<rscale>  2 0.18738724E+03</rscale>
<asrwt>0</asrwt>
<pdfrwt beam="1">  1       21 0.83126087E-01 0.18738724E+03</pdfrwt>
<pdfrwt beam="2">  1       21 0.17785716E-01 0.18738724E+03</pdfrwt>
<totfact> 0.36290270E+04</totfact>
</mgrwt>
</event>
<event>
 4    1  0.4263413E+000  0.2537013E+03  0.7546771E-02  0.1110988E+00
         21   -1    0    0  501  502  0.00000000000E+00  0.00000000000E+00  0.17080401553E+03  0.17080401553E+03  0.00000000000E+00 0.  1.
         21   -1    0    0  502  503 -0.00000000000E+00 -0.00000000000E+00 -0.38433975349E+03  0.38433975349E+03  0.00000000000E+00 0.  1.
          6    1    1    2  501    0 -0.68675473487E+02 -0.17239203957E+03 -0.14556385955E+03  0.29249474042E+03  0.17300000000E+03 0.  1.
         -6    1    1    2    0  503  0.68675473487E+02  0.17239203957E+03 -0.67971878405E+02  0.26264902859E+03  0.17300000000E+03 0.  1.
<mgrwt>
<rscale>  2 0.25370127E+03</rscale>
<asrwt>0</asrwt>
<pdfrwt beam="1">  1       21 0.26277541E-01 0.25370127E+03</pdfrwt>
<pdfrwt beam="2">  1       21 0.59129193E-01 0.25370127E+03</pdfrwt>
<totfact> 0.35752061E+04</totfact>
</mgrwt>
</event>
<event>
 4    1  0.4263413E+000  0.1783026E+03  0.7546771E-02  0.1169456E+00
         21   -1    0    0  501  502  0.00000000000E+00  0.00000000000E+00  0.22760408548E+03  0.22760408548E+03  0.00000000000E+00 0.  1.
         21   -1    0    0  502  503 -0.00000000000E+00 -0.00000000000E+00 -0.19670445913E+03  0.19670445913E+03  0.00000000000E+00 0. -1.
          6    1    1    2  501    0  0.36188040423E+02  0.23521030964E+02 -0.98778567490E+02  0.20383576370E+03  0.17300000000E+03 0. -1.
         -6    1    1    2    0  503 -0.36188040423E+02 -0.23521030964E+02  0.12967819384E+03  0.22047278091E+03  0.17300000000E+03 0.  1.
<mgrwt>
<rscale>  2 0.17830259E+03</rscale>
<asrwt>0</asrwt>
<pdfrwt beam="1">  1       21 0.35016013E-01 0.17830259E+03</pdfrwt>
<pdfrwt beam="2">  1       21 0.30262224E-01 0.17830259E+03</pdfrwt>
<totfact> 0.82848603E+04</totfact>
</mgrwt>
</event>
<event>
 4    1  0.4263413E+000  0.1789690E+03  0.7546771E-02  0.1168805E+00
         21   -1    0    0  501  502  0.00000000000E+00  0.00000000000E+00  0.75813027435E+02  0.75813027435E+02  0.00000000000E+00 0.  1.
         21   -1    0    0  502  503 -0.00000000000E+00 -0.00000000000E+00 -0.66512672355E+03  0.66512672355E+03  0.00000000000E+00 0.  1.
          6    1    1    2  501    0 -0.16644990691E+02 -0.42706345166E+02 -0.70896464889E+02  0.19249986069E+03  0.17300000000E+03 0.  1.
         -6    1    1    2    0  503  0.16644990691E+02  0.42706345166E+02 -0.51841723122E+03  0.54843989029E+03  0.17300000000E+03 0.  1.
<mgrwt>
<rscale>  2 0.17896896E+03</rscale>
<asrwt>0</asrwt>
<pdfrwt beam="1">  1       21 0.11663543E-01 0.17896896E+03</pdfrwt>
<pdfrwt beam="2">  1       21 0.10232719E+00 0.17896896E+03</pdfrwt>
<totfact> 0.48317291E+04</totfact>
</mgrwt>
</event>
<event>
 4    1  0.4263413E+000  0.2894668E+03  0.7546771E-02  0.1090628E+00
         21   -1    0    0  503  502  0.00000000000E+00  0.00000000000E+00  0.11025315693E+04  0.11025315693E+04  0.00000000000E+00 0. -1.
         21   -1    0    0  501  503 -0.00000000000E+00 -0.00000000000E+00 -0.22135338977E+03  0.22135338977E+03  0.00000000000E+00 0. -1.
          6    1    1    2  501    0  0.17346833950E+03  0.15417763398E+03 -0.95814445786E+02  0.30491214415E+03  0.17300000000E+03 0. -1.
         -6    1    1    2    0  502 -0.17346833950E+03 -0.15417763398E+03  0.97699262528E+03  0.10189728149E+04  0.17300000000E+03 0. -1.
<mgrwt>
<rscale>  2 0.28946676E+03</rscale>
<asrwt>0</asrwt>
<pdfrwt beam="1">  1       21 0.16962024E+00 0.28946676E+03</pdfrwt>
<pdfrwt beam="2">  1       21 0.34054368E-01 0.28946676E+03</pdfrwt>
<totfact> 0.16460827E+03</totfact>
</mgrwt>
</event>
<event>
 4    1  0.4263413E+000  0.2099859E+03  0.7546771E-02  0.1141577E+00
         21   -1    0    0  503  502  0.00000000000E+00  0.00000000000E+00  0.43980695760E+02  0.43980695760E+02  0.00000000000E+00 0. -1.
         21   -1    0    0  501  503 -0.00000000000E+00 -0.00000000000E+00 -0.12025534361E+04  0.12025534361E+04  0.00000000000E+00 0. -1.
          6    1    1    2  501    0  0.16160048136E+02  0.11791501085E+03 -0.83344791740E+03  0.85949376261E+03  0.17300000000E+03 0. -1.
         -6    1    1    2    0  502 -0.16160048136E+02 -0.11791501085E+03 -0.32512482294E+03  0.38704036925E+03  0.17300000000E+03 0. -1.
<mgrwt>
<rscale>  2 0.20998594E+03</rscale>
<asrwt>0</asrwt>
<pdfrwt beam="1">  1       21 0.67662611E-02 0.20998594E+03</pdfrwt>
<pdfrwt beam="2">  1       21 0.18500821E+00 0.20998594E+03</pdfrwt>
<totfact> 0.26680493E+04</totfact>
</mgrwt>
</event>
<event>
 4    1  0.4263413E+000  0.2070341E+03  0.7546771E-02  0.1143936E+00
         21   -1    0    0  503  502  0.00000000000E+00  0.00000000000E+00  0.54417906607E+02  0.54417906607E+02  0.00000000000E+00 0. -1.
         21   -1    0    0  501  503 -0.00000000000E+00 -0.00000000000E+00 -0.80798707769E+03  0.80798707769E+03  0.00000000000E+00 0. -1.
          6    1    1    2  501    0 -0.74867783132E+02  0.85609224278E+02 -0.30840058517E+03  0.37144857675E+03  0.17300000000E+03 0. -1.
         -6    1    1    2    0  502  0.74867783132E+02 -0.85609224278E+02 -0.44516858591E+03  0.49095640755E+03  0.17300000000E+03 0. -1.
<mgrwt>
<rscale>  2 0.20703411E+03</rscale>
<asrwt>0</asrwt>
<pdfrwt beam="1">  1       21 0.83719854E-02 0.20703411E+03</pdfrwt>
<pdfrwt beam="2">  1       21 0.12430571E+00 0.20703411E+03</pdfrwt>
<totfact> 0.53221506E+04</totfact>
</mgrwt>
</event>
<event>
 4    1  0.4263413E+000  0.1733831E+03  0.7546771E-02  0.1174365E+00
         21   -1    0    0  501  502  0.00000000000E+00  0.00000000000E+00  0.83877793790E+03  0.83877793790E+03  0.00000000000E+00 0.  1.
         21   -1    0    0  502  503 -0.00000000000E+00 -0.00000000000E+00 -0.36568210679E+02  0.36568210679E+02  0.00000000000E+00 0.  1.
          6    1    1    2  501    0  0.71480259728E+01  0.90334286681E+01  0.46287286253E+03  0.49428026864E+03  0.17300000000E+03 0. -1.
         -6    1    1    2    0  503 -0.71480259728E+01 -0.90334286681E+01  0.33933686469E+03  0.38106587993E+03  0.17300000000E+03 0. -1.
<mgrwt>
<rscale>  2 0.17338309E+03</rscale>
<asrwt>0</asrwt>
<pdfrwt beam="1">  1       21 0.12904275E+00 0.17338309E+03</pdfrwt>
<pdfrwt beam="2">  1       21 0.56258792E-02 0.17338309E+03</pdfrwt>
<totfact> 0.97782060E+04</totfact>
</mgrwt>
</event>
<event>
 4    1  0.4263413E+000  0.2184962E+03  0.7546771E-02  0.1135009E+00
         21   -1    0    0  503  502  0.00000000000E+00  0.00000000000E+00  0.18397219615E+04  0.18397219615E+04  0.00000000000E+00 0. -1.
         21   -1    0    0  501  503 -0.00000000000E+00 -0.00000000000E+00 -0.28014191467E+02  0.28014191467E+02  0.00000000000E+00 0.  1.
          6    1    1    2  501    0  0.11893423890E+03 -0.60549385421E+02  0.65235087707E+03  0.68796965636E+03  0.17300000000E+03 0.  1.
         -6    1    1    2    0  502 -0.11893423890E+03  0.60549385421E+02  0.11593568930E+04  0.11797664966E+04  0.17300000000E+03 0.  1.
<mgrwt>
<rscale>  2 0.21849618E+03</rscale>
<asrwt>0</asrwt>
<pdfrwt beam="1">  1       21 0.28303405E+00 0.21849618E+03</pdfrwt>
<pdfrwt beam="2">  1       21 0.43098771E-02 0.21849618E+03</pdfrwt>
<totfact> 0.14419574E+04</totfact>
</mgrwt>
</event>
<event>
 4    1  0.4263413E+000  0.3457808E+03  0.7546771E-02  0.1064360E+00
         21   -1    0    0  501  502  0.00000000000E+00  0.00000000000E+00  0.24943187385E+03  0.24943187385E+03  0.00000000000E+00 0.  1.
         21   -1    0    0  502  503 -0.00000000000E+00 -0.00000000000E+00 -0.47950270483E+03  0.47950270483E+03  0.00000000000E+00 0. -1.
          6    1    1    2  501    0  0.73660243342E+02  0.29018880775E+03 -0.12160691776E+03  0.36654142745E+03  0.17300000000E+03 0.  1.
         -6    1    1    2    0  503 -0.73660243342E+02 -0.29018880775E+03 -0.10846391321E+03  0.36239315123E+03  0.17300000000E+03 0. -1.
<mgrwt>
<rscale>  2 0.34578082E+03</rscale>
<asrwt>0</asrwt>
<pdfrwt beam="1">  1       21 0.38374134E-01 0.34578082E+03</pdfrwt>
<pdfrwt beam="2">  1       21 0.73769647E-01 0.34578082E+03</pdfrwt>
<totfact> 0.99752029E+03</totfact>
</mgrwt>
</event>
<event>
 4    1  0.4263413E+000  0.1795417E+03  0.7546771E-02  0.1168247E+00
         21   -1    0    0  503  502  0.00000000000E+00  0.00000000000E+00  0.11187055506E+03  0.11187055506E+03  0.00000000000E+00 0.  1.
         21   -1    0    0  501  503 -0.00000000000E+00 -0.00000000000E+00 -0.42992245940E+03  0.42992245940E+03  0.00000000000E+00 0.  1.
          6    1    1    2  501    0 -0.47709706859E+02 -0.54770209900E+01 -0.31458962877E+03  0.36221795706E+03  0.17300000000E+03 0.  1.
         -6    1    1    2    0  502  0.47709706859E+02  0.54770209900E+01 -0.34622755704E+01  0.17957505740E+03  0.17300000000E+03 0.  1.
<mgrwt>
<rscale>  2 0.17954168E+03</rscale>
<asrwt>0</asrwt>
<pdfrwt beam="1">  1       21 0.17210855E-01 0.17954168E+03</pdfrwt>
<pdfrwt beam="2">  1       21 0.66141916E-01 0.17954168E+03</pdfrwt>
<totfact> 0.64365788E+04</totfact>
</mgrwt>
</event>
<event>
 4    1  0.4263413E+000  0.2660051E+03  0.7546771E-02  0.1103588E+00
         21   -1    0    0  501  502  0.00000000000E+00  0.00000000000E+00  0.13672004968E+03  0.13672004968E+03  0.00000000000E+00 0. -1.
         21   -1    0    0  502  503 -0.00000000000E+00 -0.00000000000E+00 -0.58438478132E+03  0.58438478132E+03  0.00000000000E+00 0. -1.
          6    1    1    2  501    0  0.24137655479E+02  0.20061674345E+03 -0.10189460150E+03  0.28485296905E+03  0.17300000000E+03 0. -1.
         -6    1    1    2    0  503 -0.24137655479E+02 -0.20061674345E+03 -0.34577013013E+03  0.43625186195E+03  0.17300000000E+03 0. -1.
<mgrwt>
<rscale>  2 0.26600508E+03</rscale>
<asrwt>0</asrwt>
<pdfrwt beam="1">  1       21 0.21033854E-01 0.26600508E+03</pdfrwt>
<pdfrwt beam="2">  1       21 0.89905352E-01 0.26600508E+03</pdfrwt>
<totfact> 0.21272767E+04</totfact>
</mgrwt>
</event>
<event>
 4    1  0.4263413E+000  0.2180662E+03  0.7546771E-02  0.1135333E+00
         21   -1    0    0  501  502  0.00000000000E+00  0.00000000000E+00  0.12189025590E+04  0.12189025590E+04  0.00000000000E+00 0. -1.
         21   -1    0    0  502  503 -0.00000000000E+00 -0.00000000000E+00 -0.50365185645E+02  0.50365185645E+02  0.00000000000E+00 0.  1.
          6    1    1    2  501    0  0.49577673525E+02  0.12314999573E+03  0.88556968453E+03  0.91202331841E+03  0.17300000000E+03 0. -1.
         -6    1    1    2    0  503 -0.49577673525E+02 -0.12314999573E+03  0.28296768885E+03  0.35724442626E+03  0.17300000000E+03 0.  1.
<mgrwt>
<rscale>  2 0.21806620E+03</rscale>
<asrwt>0</asrwt>
<pdfrwt beam="1">  1       21 0.18752345E+00 0.21806620E+03</pdfrwt>
<pdfrwt beam="2">  1       21 0.77484911E-02 0.21806620E+03</pdfrwt>
<totfact> 0.20177568E+04</totfact>
</mgrwt>
</event>
<event>
 4    1  0.4263413E+000  0.1897664E+03  0.7546771E-02  0.1158672E+00
         21   -1    0    0  503  502  0.00000000000E+00  0.00000000000E+00  0.28670125232E+03  0.28670125232E+03  0.00000000000E+00 0. -1.
         21   -1    0    0  501  503 -0.00000000000E+00 -0.00000000000E+00 -0.16060166149E+03  0.16060166149E+03  0.00000000000E+00 0.  1.
          6    1    1    2  501    0  0.26273189114E+01 -0.77944711551E+02 -0.41351609367E+02  0.19421955736E+03  0.17300000000E+03 0.  1.
         -6    1    1    2    0  502 -0.26273189114E+01  0.77944711551E+02  0.16745120020E+03  0.25308335645E+03  0.17300000000E+03 0. -1.
<mgrwt>
<rscale>  2 0.18976638E+03</rscale>
<asrwt>0</asrwt>
<pdfrwt beam="1">  1       21 0.44107885E-01 0.18976638E+03</pdfrwt>
<pdfrwt beam="2">  1       21 0.24707948E-01 0.18976638E+03</pdfrwt>
<totfact> 0.76572177E+04</totfact>
</mgrwt>
</event>
<event>
 4    1  0.4263413E+000  0.2069441E+03  0.7546771E-02  0.1144009E+00
         21   -1    0    0  501  502  0.00000000000E+00  0.00000000000E+00  0.35093802886E+03  0.35093802886E+03  0.00000000000E+00 0.  1.
         21   -1    0    0  502  503 -0.00000000000E+00 -0.00000000000E+00 -0.18391541520E+03  0.18391541520E+03  0.00000000000E+00 0. -1.
          6    1    1    2  501    0  0.10191432638E+03  0.50103221749E+02  0.23863600154E+03  0.31586864989E+03  0.17300000000E+03 0.  1.
         -6    1    1    2    0  503 -0.10191432638E+03 -0.50103221749E+02 -0.71613387879E+02  0.21898479416E+03  0.17300000000E+03 0. -1.
<mgrwt>
<rscale>  2 0.20694411E+03</rscale>
<asrwt>0</asrwt>
<pdfrwt beam="1">  1       21 0.53990466E-01 0.20694411E+03</pdfrwt>
<pdfrwt beam="2">  1       21 0.28294679E-01 0.20694411E+03</pdfrwt>
<totfact> 0.38440751E+04</totfact>
</mgrwt>
</event>
<event>
 4    1  0.4263413E+000  0.2290909E+03  0.7546771E-02  0.1127281E+00
         21   -1    0    0  503  502  0.00000000000E+00  0.00000000000E+00  0.93112141094E+03  0.93112141094E+03  0.00000000000E+00 0.  1.
         21   -1    0    0  501  503 -0.00000000000E+00 -0.00000000000E+00 -0.61167516468E+02  0.61167516468E+02  0.00000000000E+00 0.  1.
          6    1    1    2  501    0 -0.13923657175E+03 -0.56274474074E+02  0.29595509227E+03  0.37426201515E+03  0.17300000000E+03 0.  1.
         -6    1    1    2    0  502  0.13923657175E+03  0.56274474074E+02  0.57399880221E+03  0.61802691226E+03  0.17300000000E+03 0.  1.
<mgrwt>
<rscale>  2 0.22909090E+03</rscale>
<asrwt>0</asrwt>
<pdfrwt beam="1">  1       21 0.14324944E+00 0.22909090E+03</pdfrwt>
<pdfrwt beam="2">  1       21 0.94103878E-02 0.22909090E+03</pdfrwt>
<totfact> 0.29806555E+04</totfact>
</mgrwt>
</event>
<event>
 4    1  0.4263413E+000  0.2640041E+03  0.7546771E-02  0.1104761E+00
         21   -1    0    0  503  502  0.00000000000E+00  0.00000000000E+00  0.11032702715E+04  0.11032702715E+04  0.00000000000E+00 0.  1.
         21   -1    0    0  501  503 -0.00000000000E+00 -0.00000000000E+00 -0.23745524458E+03  0.23745524458E+03  0.00000000000E+00 0.  1.
          6    1    1    2  501    0 -0.28061998807E+02  0.19743784678E+03 -0.14139949441E+03  0.29948622028E+03  0.17300000000E+03 0.  1.
         -6    1    1    2    0  502  0.28061998807E+02 -0.19743784678E+03  0.10072145213E+04  0.10412392958E+04  0.17300000000E+03 0.  1.
<mgrwt>
<rscale>  2 0.26400413E+03</rscale>
<asrwt>0</asrwt>
<pdfrwt beam="1">  1       21 0.16973388E+00 0.26400413E+03</pdfrwt>
<pdfrwt beam="2">  1       21 0.36531577E-01 0.26400413E+03</pdfrwt>
<totfact> 0.14535973E+03</totfact>
</mgrwt>
</event>
<event>
 4    1  0.4263413E+000  0.1955512E+03  0.7546771E-02  0.1153548E+00
         21   -1    0    0  503  502  0.00000000000E+00  0.00000000000E+00  0.11999179547E+03  0.11999179547E+03  0.00000000000E+00 0.  1.
         21   -1    0    0  501  503 -0.00000000000E+00 -0.00000000000E+00 -0.31931772792E+03  0.31931772792E+03  0.00000000000E+00 0.  1.
          6    1    1    2  501    0  0.68576405361E+01  0.90907799161E+02 -0.89928474752E+02  0.21523797470E+03  0.17300000000E+03 0.  1.
         -6    1    1    2    0  502 -0.68576405361E+01 -0.90907799161E+02 -0.10939745769E+03  0.22407154869E+03  0.17300000000E+03 0.  1.
<mgrwt>
<rscale>  2 0.19555116E+03</rscale>
<asrwt>0</asrwt>
<pdfrwt beam="1">  1       21 0.18460276E-01 0.19555116E+03</pdfrwt>
<pdfrwt beam="2">  1       21 0.49125804E-01 0.19555116E+03</pdfrwt>
<totfact> 0.10579756E+05</totfact>
</mgrwt>
</event>
<event>
 4    1  0.4263413E+000  0.2071353E+03  0.7546771E-02  0.1143855E+00
         21   -1    0    0  501  502  0.00000000000E+00  0.00000000000E+00  0.32940612665E+03  0.32940612665E+03  0.00000000000E+00 0. -1.
         21   -1    0    0  502  503 -0.00000000000E+00 -0.00000000000E+00 -0.19204235619E+03  0.19204235619E+03  0.00000000000E+00 0.  1.
          6    1    1    2  501    0 -0.22384753357E+02 -0.11169126265E+03  0.21657627258E+03  0.29968366185E+03  0.17300000000E+03 0. -1.
         -6    1    1    2    0  503  0.22384753357E+02  0.11169126265E+03 -0.79212502121E+02  0.22176482099E+03  0.17300000000E+03 0.  1.
<mgrwt>
<rscale>  2 0.20713526E+03</rscale>
<asrwt>0</asrwt>
<pdfrwt beam="1">  1       21 0.50677866E-01 0.20713526E+03</pdfrwt>
<pdfrwt beam="2">  1       21 0.29544978E-01 0.20713526E+03</pdfrwt>
<totfact> 0.40371310E+04</totfact>
</mgrwt>
</event>
<event>
 4    1  0.4263413E+000  0.1838865E+03  0.7546771E-02  0.1164094E+00
         21   -1    0    0  503  502  0.00000000000E+00  0.00000000000E+00  0.15423065789E+04  0.15423065789E+04  0.00000000000E+00 0. -1.
         21   -1    0    0  501  503 -0.00000000000E+00 -0.00000000000E+00 -0.28254297572E+02  0.28254297572E+02  0.00000000000E+00 0. -1.
          6    1    1    2  501    0  0.39524418286E+02 -0.48198185777E+02  0.38533802575E+03  0.42696561787E+03  0.17300000000E+03 0. -1.
         -6    1    1    2    0  502 -0.39524418286E+02  0.48198185777E+02  0.11287142555E+04  0.11435952586E+04  0.17300000000E+03 0. -1.
<mgrwt>
<rscale>  2 0.18388650E+03</rscale>
<asrwt>0</asrwt>
<pdfrwt beam="1">  1       21 0.23727787E+00 0.18388650E+03</pdfrwt>
<pdfrwt beam="2">  1       21 0.43468162E-02 0.18388650E+03</pdfrwt>
<totfact> 0.27144018E+04</totfact>
</mgrwt>
</event>
<event>
 4    1  0.4263413E+000  0.2153319E+03  0.7546771E-02  0.1137412E+00
         21   -1    0    0  503  502  0.00000000000E+00  0.00000000000E+00  0.50368275907E+03  0.50368275907E+03  0.00000000000E+00 0.  1.
         21   -1    0    0  501  503 -0.00000000000E+00 -0.00000000000E+00 -0.12107868023E+03  0.12107868023E+03  0.00000000000E+00 0.  1.
          6    1    1    2  501    0  0.12616504208E+03  0.22829868084E+02  0.38366912931E+02  0.21872320573E+03  0.17300000000E+03 0.  1.
         -6    1    1    2    0  502 -0.12616504208E+03 -0.22829868084E+02  0.34423716591E+03  0.40603823356E+03  0.17300000000E+03 0.  1.
<mgrwt>
<rscale>  2 0.21533189E+03</rscale>
<asrwt>0</asrwt>
<pdfrwt beam="1">  1       21 0.77489654E-01 0.21533189E+03</pdfrwt>
<pdfrwt beam="2">  1       21 0.18627490E-01 0.21533189E+03</pdfrwt>
<totfact> 0.38483900E+04</totfact>
</mgrwt>
</event>
<event>
 4    1  0.4263413E+000  0.1832270E+03  0.7546771E-02  0.1164716E+00
         21   -1    0    0  501  502  0.00000000000E+00  0.00000000000E+00  0.62074766759E+02  0.62074766759E+02  0.00000000000E+00 0. -1.
         21   -1    0    0  502  503 -0.00000000000E+00 -0.00000000000E+00 -0.13484724287E+04  0.13484724287E+04  0.00000000000E+00 0. -1.
          6    1    1    2  501    0  0.47586779754E+02  0.37130031776E+02 -0.97384300072E+02  0.20749901871E+03  0.17300000000E+03 0. -1.
         -6    1    1    2    0  503 -0.47586779754E+02 -0.37130031776E+02 -0.11890133619E+04  0.12030481768E+04  0.17300000000E+03 0. -1.
<mgrwt>
<rscale>  2 0.18322702E+03</rscale>
<asrwt>0</asrwt>
<pdfrwt beam="1">  1       21 0.95499650E-02 0.18322702E+03</pdfrwt>
<pdfrwt beam="2">  1       21 0.20745728E+00 0.18322702E+03</pdfrwt>
<totfact> 0.10681686E+04</totfact>
</mgrwt>
</event>
<event>
 4    1  0.4263413E+000  0.1739166E+03  0.7546771E-02  0.1173824E+00
         21   -1    0    0  503  502  0.00000000000E+00  0.00000000000E+00  0.37843378789E+02  0.37843378789E+02  0.00000000000E+00 0.  1.
         21   -1    0    0  501  503 -0.00000000000E+00 -0.00000000000E+00 -0.84244232038E+03  0.84244232038E+03  0.00000000000E+00 0. -1.
          6    1    1    2  501    0 -0.16403441012E+02 -0.69930382038E+01 -0.50194086655E+03  0.53121710154E+03  0.17300000000E+03 0. -1.
         -6    1    1    2    0  502  0.16403441012E+02  0.69930382038E+01 -0.30265807504E+03  0.34906859762E+03  0.17300000000E+03 0.  1.
<mgrwt>
<rscale>  2 0.17391658E+03</rscale>
<asrwt>0</asrwt>
<pdfrwt beam="1">  1       21 0.58220590E-02 0.17391658E+03</pdfrwt>
<pdfrwt beam="2">  1       21 0.12960650E+00 0.17391658E+03</pdfrwt>
<totfact> 0.91209735E+04</totfact>
</mgrwt>
</event>
<event>
 4    1  0.4263413E+000  0.1923844E+03  0.7546771E-02  0.1156328E+00
         21   -1    0    0  503  502  0.00000000000E+00  0.00000000000E+00  0.11691341198E+03  0.11691341198E+03  0.00000000000E+00 0. -1.
         21   -1    0    0  501  503 -0.00000000000E+00 -0.00000000000E+00 -0.31670496815E+03  0.31670496815E+03  0.00000000000E+00 0. -1.
          6    1    1    2  501    0 -0.45495308323E+02 -0.70802203593E+02 -0.95490972880E+02  0.21477965689E+03  0.17300000000E+03 0. -1.
         -6    1    1    2    0  502  0.45495308323E+02  0.70802203593E+02 -0.10430058329E+03  0.21883872324E+03  0.17300000000E+03 0. -1.
<mgrwt>
<rscale>  2 0.19238445E+03</rscale>
<asrwt>0</asrwt>
<pdfrwt beam="1">  1       21 0.17986678E-01 0.19238445E+03</pdfrwt>
<pdfrwt beam="2">  1       21 0.48723842E-01 0.19238445E+03</pdfrwt>
<totfact> 0.11306657E+05</totfact>
</mgrwt>
</event>
<event>
 4    1  0.4263413E+000  0.1861237E+03  0.7546771E-02  0.1162005E+00
         21   -1    0    0  501  502  0.00000000000E+00  0.00000000000E+00  0.50570535684E+03  0.50570535684E+03  0.00000000000E+00 0.  1.
         21   -1    0    0  502  503 -0.00000000000E+00 -0.00000000000E+00 -0.91687290304E+02  0.91687290304E+02  0.00000000000E+00 0.  1.
          6    1    1    2  501    0 -0.33593792250E+02  0.59870754401E+02  0.35721164018E+03  0.40279300638E+03  0.17300000000E+03 0.  1.
         -6    1    1    2    0  503  0.33593792250E+02 -0.59870754401E+02  0.56806426360E+02  0.19459964077E+03  0.17300000000E+03 0.  1.
<mgrwt>
<rscale>  2 0.18612375E+03</rscale>
<asrwt>0</asrwt>
<pdfrwt beam="1">  1       21 0.77800822E-01 0.18612375E+03</pdfrwt>
<pdfrwt beam="2">  1       21 0.14105737E-01 0.18612375E+03</pdfrwt>
<totfact> 0.64425878E+04</totfact>
</mgrwt>
</event>
<event>
 4    1  0.4263413E+000  0.1793511E+03  0.7546771E-02  0.1168433E+00
         21   -1    0    0  501  502  0.00000000000E+00  0.00000000000E+00  0.37145378263E+03  0.37145378263E+03  0.00000000000E+00 0. -1.
         21   -1    0    0  502  503 -0.00000000000E+00 -0.00000000000E+00 -0.10032229436E+03  0.10032229436E+03  0.00000000000E+00 0. -1.
          6    1    1    2  501    0 -0.19867632309E+02 -0.42931373418E+02  0.22281590129E+03  0.28603103241E+03  0.17300000000E+03 0. -1.
         -6    1    1    2    0  503  0.19867632309E+02  0.42931373418E+02  0.48315586988E+02  0.18574504457E+03  0.17300000000E+03 0. -1.
<mgrwt>
<rscale>  2 0.17935112E+03</rscale>
<asrwt>0</asrwt>
<pdfrwt beam="1">  1       21 0.57146735E-01 0.17935112E+03</pdfrwt>
<pdfrwt beam="2">  1       21 0.15434199E-01 0.17935112E+03</pdfrwt>
<totfact> 0.10762484E+05</totfact>
</mgrwt>
</event>
<event>
 4    1  0.4263413E+000  0.1775511E+03  0.7546771E-02  0.1170194E+00
         21   -1    0    0  501  502  0.00000000000E+00  0.00000000000E+00  0.96407538203E+03  0.96407538203E+03  0.00000000000E+00 0.  1.
         21   -1    0    0  502  503 -0.00000000000E+00 -0.00000000000E+00 -0.35025335580E+02  0.35025335580E+02  0.00000000000E+00 0.  1.
          6    1    1    2  501    0 -0.88865298740E+01  0.38941114434E+02  0.59326593160E+03  0.61926476277E+03  0.17300000000E+03 0. -1.
         -6    1    1    2    0  503  0.88865298740E+01 -0.38941114434E+02  0.33578411485E+03  0.37983595484E+03  0.17300000000E+03 0. -1.
<mgrwt>
<rscale>  2 0.17755107E+03</rscale>
<asrwt>0</asrwt>
<pdfrwt beam="1">  1       21 0.14831927E+00 0.17755107E+03</pdfrwt>
<pdfrwt beam="2">  1       21 0.53885139E-02 0.17755107E+03</pdfrwt>
<totfact> 0.73500995E+04</totfact>
</mgrwt>
</event>
<event>
 4    1  0.4263413E+000  0.2580925E+03  0.7546771E-02  0.1108295E+00
         21   -1    0    0  501  502  0.00000000000E+00  0.00000000000E+00  0.18239895488E+03  0.18239895488E+03  0.00000000000E+00 0.  1.
         21   -1    0    0  502  503 -0.00000000000E+00 -0.00000000000E+00 -0.11125918802E+04  0.11125918802E+04  0.00000000000E+00 0. -1.
          6    1    1    2  501    0 -0.11711338959E+03  0.15154936999E+03  0.65596692976E+02  0.26629811057E+03  0.17300000000E+03 0.  1.
         -6    1    1    2    0  503  0.11711338959E+03 -0.15154936999E+03 -0.99578961832E+03  0.10286927245E+04  0.17300000000E+03 0. -1.
<mgrwt>
<rscale>  2 0.25809254E+03</rscale>
<asrwt>0</asrwt>
<pdfrwt beam="1">  1       21 0.28061377E-01 0.25809254E+03</pdfrwt>
<pdfrwt beam="2">  1       21 0.17116798E+00 0.25809254E+03</pdfrwt>
<totfact> 0.24033576E+03</totfact>
</mgrwt>
</event>
<event>
 4    1  0.4263413E+000  0.1840990E+03  0.7546771E-02  0.1163894E+00
         21   -1    0    0  501  502  0.00000000000E+00  0.00000000000E+00  0.12968854223E+04  0.12968854223E+04  0.00000000000E+00 0. -1.
         21   -1    0    0  502  503 -0.00000000000E+00 -0.00000000000E+00 -0.37025456004E+02  0.37025456004E+02  0.00000000000E+00 0. -1.
          6    1    1    2  501    0 -0.37398854820E+02 -0.50643516047E+02  0.99166884728E+03  0.10086126822E+04  0.17300000000E+03 0.  1.
         -6    1    1    2    0  503  0.37398854820E+02  0.50643516047E+02  0.26819111901E+03  0.32529819608E+03  0.17300000000E+03 0.  1.
<mgrwt>
<rscale>  2 0.18409900E+03</rscale>
<asrwt>0</asrwt>
<pdfrwt beam="1">  1       21 0.19952080E+00 0.18409900E+03</pdfrwt>
<pdfrwt beam="2">  1       21 0.56962250E-02 0.18409900E+03</pdfrwt>
<totfact> 0.29318962E+04</totfact>
</mgrwt>
</event>
<event>
 4    1  0.4263413E+000  0.1871628E+03  0.7546771E-02  0.1161045E+00
         21   -1    0    0  503  502  0.00000000000E+00  0.00000000000E+00  0.17221318220E+03  0.17221318220E+03  0.00000000000E+00 0. -1.
         21   -1    0    0  501  503 -0.00000000000E+00 -0.00000000000E+00 -0.43251994546E+03  0.43251994546E+03  0.00000000000E+00 0. -1.
          6    1    1    2  501    0 -0.70599099774E+02  0.10801805459E+02 -0.35021915828E+03  0.39709365484E+03  0.17300000000E+03 0. -1.
         -6    1    1    2    0  502  0.70599099774E+02 -0.10801805459E+02  0.89912395023E+02  0.20763947281E+03  0.17300000000E+03 0. -1.
<mgrwt>
<rscale>  2 0.18716280E+03</rscale>
<asrwt>0</asrwt>
<pdfrwt beam="1">  1       21 0.26494336E-01 0.18716280E+03</pdfrwt>
<pdfrwt beam="2">  1       21 0.66541529E-01 0.18716280E+03</pdfrwt>
<totfact> 0.28151751E+04</totfact>
</mgrwt>
</event>
<event>
 4    1  0.4263413E+000  0.1783992E+03  0.7546771E-02  0.1169361E+00
         21   -1    0    0  501  502  0.00000000000E+00  0.00000000000E+00  0.55968022715E+02  0.55968022715E+02  0.00000000000E+00 0. -1.
         21   -1    0    0  502  503 -0.00000000000E+00 -0.00000000000E+00 -0.62305581717E+03  0.62305581717E+03  0.00000000000E+00 0. -1.
          6    1    1    2  501    0  0.42918244792E+02 -0.74364396729E+01 -0.18321872339E+03  0.25572519816E+03  0.17300000000E+03 0.  1.
         -6    1    1    2    0  503 -0.42918244792E+02  0.74364396729E+01 -0.38386907106E+03  0.42329864173E+03  0.17300000000E+03 0.  1.
<mgrwt>
<rscale>  2 0.17839921E+03</rscale>
<asrwt>0</asrwt>
<pdfrwt beam="1">  1       21 0.86104656E-02 0.17839921E+03</pdfrwt>
<pdfrwt beam="2">  1       21 0.95854735E-01 0.17839921E+03</pdfrwt>
<totfact> 0.96313149E+04</totfact>
</mgrwt>
</event>
<event>
 4    1  0.4263413E+000  0.1790611E+03  0.7546771E-02  0.1168715E+00
         21   -1    0    0  501  502  0.00000000000E+00  0.00000000000E+00  0.63846155235E+03  0.63846155235E+03  0.00000000000E+00 0.  1.
         21   -1    0    0  502  503 -0.00000000000E+00 -0.00000000000E+00 -0.51896530331E+02  0.51896530331E+02  0.00000000000E+00 0.  1.
          6    1    1    2  501    0  0.52507425830E+01  0.45894337032E+02  0.35534348732E+03  0.39790935456E+03  0.17300000000E+03 0. -1.
         -6    1    1    2    0  503 -0.52507425830E+01 -0.45894337032E+02  0.23122153470E+03  0.29244872812E+03  0.17300000000E+03 0. -1.
<mgrwt>
<rscale>  2 0.17906105E+03</rscale>
<asrwt>0</asrwt>
<pdfrwt beam="1">  1       21 0.98224849E-01 0.17906105E+03</pdfrwt>
<pdfrwt beam="2">  1       21 0.79840820E-02 0.17906105E+03</pdfrwt>
<totfact> 0.10370462E+05</totfact>
</mgrwt>
</event>
<event>
 4    1  0.4263413E+000  0.1893742E+03  0.7546771E-02  0.1159027E+00
         21   -1    0    0  501  502  0.00000000000E+00  0.00000000000E+00  0.15841010530E+04  0.15841010530E+04  0.00000000000E+00 0.  1.
         21   -1    0    0  502  503 -0.00000000000E+00 -0.00000000000E+00 -0.25860697338E+02  0.25860697338E+02  0.00000000000E+00 0. -1.
          6    1    1    2  501    0  0.57728668005E+02  0.51000047678E+02  0.10632402060E+04  0.10799733050E+04  0.17300000000E+03 0.  1.
         -6    1    1    2    0  503 -0.57728668005E+02 -0.51000047678E+02  0.49500014971E+03  0.52998844533E+03  0.17300000000E+03 0. -1.
<mgrwt>
<rscale>  2 0.18937424E+03</rscale>
<asrwt>0</asrwt>
<pdfrwt beam="1">  1       21 0.24370778E+00 0.18937424E+03</pdfrwt>
<pdfrwt beam="2">  1       21 0.39785701E-02 0.18937424E+03</pdfrwt>
<totfact> 0.28714216E+04</totfact>
</mgrwt>
</event>
<event>
 4    1  0.4263413E+000  0.2640363E+03  0.7546771E-02  0.1104742E+00
         21   -1    0    0  503  502  0.00000000000E+00  0.00000000000E+00  0.97732796434E+03  0.97732796434E+03  0.00000000000E+00 0. -1.
         21   -1    0    0  501  503 -0.00000000000E+00 -0.00000000000E+00 -0.71368866367E+02  0.71368866367E+02  0.00000000000E+00 0.  1.
          6    1    1    2  501    0 -0.15065411693E+03  0.13072682251E+03  0.44112962419E+03  0.51411137938E+03  0.17300000000E+03 0. -1.
         -6    1    1    2    0  502  0.15065411693E+03 -0.13072682251E+03  0.46482947379E+03  0.53458545133E+03  0.17300000000E+03 0.  1.
<mgrwt>
<rscale>  2 0.26403629E+03</rscale>
<asrwt>0</asrwt>
<pdfrwt beam="1">  1       21 0.15035814E+00 0.26403629E+03</pdfrwt>
<pdfrwt beam="2">  1       21 0.10979826E-01 0.26403629E+03</pdfrwt>
<totfact> 0.19572259E+04</totfact>
</mgrwt>
</event>
<event>
 4    1  0.4263413E+000  0.2290729E+03  0.7546771E-02  0.1127294E+00
         21   -1    0    0  503  502  0.00000000000E+00  0.00000000000E+00  0.30599961073E+03  0.30599961073E+03  0.00000000000E+00 0.  1.
         21   -1    0    0  501  503 -0.00000000000E+00 -0.00000000000E+00 -0.19209348330E+03  0.19209348330E+03  0.00000000000E+00 0. -1.
          6    1    1    2  501    0 -0.14123898737E+03  0.50960025623E+02 -0.24619874270E+02  0.23039208748E+03  0.17300000000E+03 0. -1.
         -6    1    1    2    0  502  0.14123898737E+03 -0.50960025623E+02  0.13852600170E+03  0.26770100656E+03  0.17300000000E+03 0.  1.
<mgrwt>
<rscale>  2 0.22907286E+03</rscale>
<asrwt>0</asrwt>
<pdfrwt beam="1">  1       21 0.47076863E-01 0.22907286E+03</pdfrwt>
<pdfrwt beam="2">  1       21 0.29552844E-01 0.22907286E+03</pdfrwt>
<totfact> 0.46569743E+04</totfact>
</mgrwt>
</event>
<event>
 4    1  0.4263413E+000  0.2006412E+03  0.7546771E-02  0.1149199E+00
         21   -1    0    0  501  502  0.00000000000E+00  0.00000000000E+00  0.96711769503E+03  0.96711769503E+03  0.00000000000E+00 0.  1.
         21   -1    0    0  502  503 -0.00000000000E+00 -0.00000000000E+00 -0.53849881899E+02  0.53849881899E+02  0.00000000000E+00 0.  1.
          6    1    1    2  501    0  0.66623619677E+02  0.76740923611E+02  0.69985478696E+03  0.72804779986E+03  0.17300000000E+03 0.  1.
         -6    1    1    2    0  503 -0.66623619677E+02 -0.76740923611E+02  0.21341302617E+03  0.29291977706E+03  0.17300000000E+03 0.  1.
<mgrwt>
<rscale>  2 0.20064116E+03</rscale>
<asrwt>0</asrwt>
<pdfrwt beam="1">  1       21 0.14878732E+00 0.20064116E+03</pdfrwt>
<pdfrwt beam="2">  1       21 0.82845979E-02 0.20064116E+03</pdfrwt>
<totfact> 0.34309173E+04</totfact>
</mgrwt>
</event>
<event>
 4    1  0.4263413E+000  0.1872826E+03  0.7546771E-02  0.1160935E+00
         21   -1    0    0  501  502  0.00000000000E+00  0.00000000000E+00  0.13943790839E+03  0.13943790839E+03  0.00000000000E+00 0. -1.
         21   -1    0    0  502  503 -0.00000000000E+00 -0.00000000000E+00 -0.25154417331E+03  0.25154417331E+03  0.00000000000E+00 0.  1.
          6    1    1    2  501    0  0.70255117966E+02  0.14491164904E+02 -0.55913342435E+02  0.19545095887E+03  0.17300000000E+03 0. -1.
         -6    1    1    2    0  503 -0.70255117966E+02 -0.14491164904E+02 -0.56192922486E+02  0.19553112284E+03  0.17300000000E+03 0.  1.
<mgrwt>
<rscale>  2 0.18728261E+03</rscale>
<asrwt>0</asrwt>
<pdfrwt beam="1">  1       21 0.21451986E-01 0.18728261E+03</pdfrwt>
<pdfrwt beam="2">  1       21 0.38699103E-01 0.18728261E+03</pdfrwt>
<totfact> 0.13056734E+05</totfact>
</mgrwt>
</event>
<event>
 4    1  0.4263413E+000  0.1733749E+03  0.7546771E-02  0.1174373E+00
         21   -1    0    0  501  502  0.00000000000E+00  0.00000000000E+00  0.44692496817E+03  0.44692496817E+03  0.00000000000E+00 0.  1.
         21   -1    0    0  502  503 -0.00000000000E+00 -0.00000000000E+00 -0.68914482800E+02  0.68914482800E+02  0.00000000000E+00 0.  1.
          6    1    1    2  501    0  0.84102976075E+01  0.76889917179E+01  0.14900638093E+03  0.22860830094E+03  0.17300000000E+03 0.  1.
         -6    1    1    2    0  503 -0.84102976075E+01 -0.76889917179E+01  0.22900410444E+03  0.28723115004E+03  0.17300000000E+03 0.  1.
<mgrwt>
<rscale>  2 0.17337489E+03</rscale>
<asrwt>0</asrwt>
<pdfrwt beam="1">  1       21 0.68757686E-01 0.17337489E+03</pdfrwt>
<pdfrwt beam="2">  1       21 0.10602228E-01 0.17337489E+03</pdfrwt>
<totfact> 0.14196512E+05</totfact>
</mgrwt>
</event>
<event>
 4    1  0.4263413E+000  0.2111323E+03  0.7546771E-02  0.1140672E+00
         21   -1    0    0  503  502  0.00000000000E+00  0.00000000000E+00  0.16080004247E+03  0.16080004247E+03  0.00000000000E+00 0.  1.
         21   -1    0    0  501  503 -0.00000000000E+00 -0.00000000000E+00 -0.27747462175E+03  0.27747462175E+03  0.00000000000E+00 0. -1.
          6    1    1    2  501    0 -0.98632810678E+02  0.70138583973E+02 -0.51688083832E+02  0.21736722456E+03  0.17300000000E+03 0. -1.
         -6    1    1    2    0  502  0.98632810678E+02 -0.70138583973E+02 -0.64986495450E+02  0.22090743966E+03  0.17300000000E+03 0. -1.
<mgrwt>
<rscale>  2 0.21113231E+03</rscale>
<asrwt>0</asrwt>
<pdfrwt beam="1">  1       21 0.24738469E-01 0.21113231E+03</pdfrwt>
<pdfrwt beam="2">  1       21 0.42688403E-01 0.21113231E+03</pdfrwt>
<totfact> 0.80936192E+04</totfact>
</mgrwt>
</event>
<event>
 4    1  0.4263413E+000  0.1861411E+03  0.7546771E-02  0.1161989E+00
         21   -1    0    0  503  502  0.00000000000E+00  0.00000000000E+00  0.69382135379E+03  0.69382135379E+03  0.00000000000E+00 0. -1.
         21   -1    0    0  501  503 -0.00000000000E+00 -0.00000000000E+00 -0.63291647842E+02  0.63291647842E+02  0.00000000000E+00 0. -1.
          6    1    1    2  501    0  0.63508925104E+02  0.26193745215E+02  0.14138589270E+03  0.23374872515E+03  0.17300000000E+03 0. -1.
         -6    1    1    2    0  502 -0.63508925104E+02 -0.26193745215E+02  0.48914381325E+03  0.52336427648E+03  0.17300000000E+03 0. -1.
<mgrwt>
<rscale>  2 0.18614106E+03</rscale>
<asrwt>0</asrwt>
<pdfrwt beam="1">  1       21 0.10674174E+00 0.18614106E+03</pdfrwt>
<pdfrwt beam="2">  1       21 0.97371771E-02 0.18614106E+03</pdfrwt>
<totfact> 0.59915805E+04</totfact>
</mgrwt>
</event>
<event>
 4    1  0.4263413E+000  0.2992287E+03  0.7546771E-02  0.1085627E+00
         21   -1    0    0  501  502  0.00000000000E+00  0.00000000000E+00  0.55814120728E+03  0.55814120728E+03  0.00000000000E+00 0.  1.
         21   -1    0    0  502  503 -0.00000000000E+00 -0.00000000000E+00 -0.13460839771E+04  0.13460839771E+04  0.00000000000E+00 0. -1.
          6    1    1    2  501    0 -0.18743956150E+03 -0.15644563218E+03  0.49960725246E+03  0.58236177051E+03  0.17300000000E+03 0.  1.
         -6    1    1    2    0  503  0.18743956150E+03  0.15644563218E+03 -0.12875500222E+04  0.13218634138E+04  0.17300000000E+03 0. -1.
<mgrwt>
<rscale>  2 0.29922872E+03</rscale>
<asrwt>0</asrwt>
<pdfrwt beam="1">  1       21 0.85867878E-01 0.29922872E+03</pdfrwt>
<pdfrwt beam="2">  1       21 0.20708984E+00 0.29922872E+03</pdfrwt>
<totfact> 0.12568624E+02</totfact>
</mgrwt>
</event>
<event>
 4    1  0.4263413E+000  0.1775129E+03  0.7546771E-02  0.1170232E+00
         21   -1    0    0  501  502  0.00000000000E+00  0.00000000000E+00  0.13908391901E+03  0.13908391901E+03  0.00000000000E+00 0.  1.
         21   -1    0    0  502  503 -0.00000000000E+00 -0.00000000000E+00 -0.56215535016E+03  0.56215535016E+03  0.00000000000E+00 0.  1.
          6    1    1    2  501    0  0.39765923167E+02 -0.70555696303E+00  0.59368740100E+02  0.18717765293E+03  0.17300000000E+03 0.  1.
         -6    1    1    2    0  503 -0.39765923167E+02  0.70555696303E+00 -0.48244017124E+03  0.51406161624E+03  0.17300000000E+03 0.  1.
<mgrwt>
<rscale>  2 0.17751289E+03</rscale>
<asrwt>0</asrwt>
<pdfrwt beam="1">  1       21 0.21397526E-01 0.17751289E+03</pdfrwt>
<pdfrwt beam="2">  1       21 0.86485439E-01 0.17751289E+03</pdfrwt>
<totfact> 0.23632762E+04</totfact>
</mgrwt>
</event>
<event>
 4    1  0.4263413E+000  0.3886880E+03  0.7546771E-02  0.1047769E+00
         21   -1    0    0  503  502  0.00000000000E+00  0.00000000000E+00  0.10122012458E+03  0.10122012458E+03  0.00000000000E+00 0. -1.
         21   -1    0    0  501  503 -0.00000000000E+00 -0.00000000000E+00 -0.15026574266E+04  0.15026574266E+04  0.00000000000E+00 0. -1.
          6    1    1    2  501    0 -0.96702321056E+02 -0.33436214369E+03 -0.76641571569E+03  0.85934360490E+03  0.17300000000E+03 0. -1.
         -6    1    1    2    0  502  0.96702321056E+02  0.33436214369E+03 -0.63502158628E+03  0.74453394622E+03  0.17300000000E+03 0. -1.
<mgrwt>
<rscale>  2 0.38868803E+03</rscale>
<asrwt>0</asrwt>
<pdfrwt beam="1">  1       21 0.15572328E-01 0.38868803E+03</pdfrwt>
<pdfrwt beam="2">  1       21 0.23117805E+00 0.38868803E+03</pdfrwt>
<totfact> 0.27315778E+03</totfact>
</mgrwt>
</event>
<event>
 4    1  0.4263413E+000  0.1773109E+03  0.7546771E-02  0.1170431E+00
         21   -1    0    0  503  502  0.00000000000E+00  0.00000000000E+00  0.64328024723E+03  0.64328024723E+03  0.00000000000E+00 0. -1.
         21   -1    0    0  501  503 -0.00000000000E+00 -0.00000000000E+00 -0.71215518934E+02  0.71215518934E+02  0.00000000000E+00 0. -1.
          6    1    1    2  501    0  0.12927003199E+01  0.38839220631E+02  0.85932595072E+02  0.19703696869E+03  0.17300000000E+03 0. -1.
         -6    1    1    2    0  502 -0.12927003199E+01 -0.38839220631E+02  0.48613213322E+03  0.51745879747E+03  0.17300000000E+03 0. -1.
<mgrwt>
<rscale>  2 0.17731090E+03</rscale>
<asrwt>0</asrwt>
<pdfrwt beam="1">  1       21 0.98966188E-01 0.17731090E+03</pdfrwt>
<pdfrwt beam="2">  1       21 0.10956234E-01 0.17731090E+03</pdfrwt>
<totfact> 0.58504016E+04</totfact>
</mgrwt>
</event>
<event>
 4    1  0.4263413E+000  0.2688622E+03  0.7546771E-02  0.1101933E+00
         21   -1    0    0  501  502  0.00000000000E+00  0.00000000000E+00  0.95849118482E+02  0.95849118482E+02  0.00000000000E+00 0. -1.
         21   -1    0    0  502  503 -0.00000000000E+00 -0.00000000000E+00 -0.95770022811E+03  0.95770022811E+03  0.00000000000E+00 0.  1.
          6    1    1    2  501    0  0.10158170186E+03 -0.17899453791E+03 -0.18808535807E+03  0.32812038748E+03  0.17300000000E+03 0. -1.
         -6    1    1    2    0  503 -0.10158170186E+03  0.17899453791E+03 -0.67376575156E+03  0.72542895912E+03  0.17300000000E+03 0.  1.
<mgrwt>
<rscale>  2 0.26886221E+03</rscale>
<asrwt>0</asrwt>
<pdfrwt beam="1">  1       21 0.14746018E-01 0.26886221E+03</pdfrwt>
<pdfrwt beam="2">  1       21 0.14733850E+00 0.26886221E+03</pdfrwt>
<totfact> 0.12078889E+04</totfact>
</mgrwt>
</event>
<event>
 4    1  0.4263413E+000  0.2395262E+03  0.7546771E-02  0.1120109E+00
         21   -1    0    0  501  502  0.00000000000E+00  0.00000000000E+00  0.35479837421E+02  0.35479837421E+02  0.00000000000E+00 0. -1.
         21   -1    0    0  502  503 -0.00000000000E+00 -0.00000000000E+00 -0.21498288370E+04  0.21498288370E+04  0.00000000000E+00 0.  1.
          6    1    1    2  501    0  0.14576290295E+03 -0.78720833964E+02 -0.51323208146E+03  0.56637440180E+03  0.17300000000E+03 0. -1.
         -6    1    1    2    0  503 -0.14576290295E+03  0.78720833964E+02 -0.16011169181E+04  0.16189342726E+04  0.17300000000E+03 0.  1.
<mgrwt>
<rscale>  2 0.23952619E+03</rscale>
<asrwt>0</asrwt>
<pdfrwt beam="1">  1       21 0.54584374E-02 0.23952619E+03</pdfrwt>
<pdfrwt beam="2">  1       21 0.33074284E+00 0.23952619E+03</pdfrwt>
<totfact> 0.49873663E+03</totfact>
</mgrwt>
</event>
<event>
 4    1  0.4263413E+000  0.2055137E+03  0.7546771E-02  0.1145169E+00
         21   -1    0    0  503  502  0.00000000000E+00  0.00000000000E+00  0.43520646968E+02  0.43520646968E+02  0.00000000000E+00 0.  1.
         21   -1    0    0  501  503 -0.00000000000E+00 -0.00000000000E+00 -0.11987342516E+04  0.11987342516E+04  0.00000000000E+00 0. -1.
          6    1    1    2  501    0 -0.37994548892E+02 -0.10422720392E+03 -0.84864417382E+03  0.87317399729E+03  0.17300000000E+03 0. -1.
         -6    1    1    2    0  502  0.37994548892E+02  0.10422720392E+03 -0.30656943083E+03  0.36908090130E+03  0.17300000000E+03 0.  1.
<mgrwt>
<rscale>  2 0.20551374E+03</rscale>
<asrwt>0</asrwt>
<pdfrwt beam="1">  1       21 0.66954847E-02 0.20551374E+03</pdfrwt>
<pdfrwt beam="2">  1       21 0.18442064E+00 0.20551374E+03</pdfrwt>
<totfact> 0.27499812E+04</totfact>
</mgrwt>
</event>
<event>
 4    1  0.4263413E+000  0.1873434E+03  0.7546771E-02  0.1160879E+00
         21   -1    0    0  503  502  0.00000000000E+00  0.00000000000E+00  0.34441704280E+03  0.34441704280E+03  0.00000000000E+00 0.  1.
         21   -1    0    0  501  503 -0.00000000000E+00 -0.00000000000E+00 -0.68069261231E+03  0.68069261231E+03  0.00000000000E+00 0.  1.
          6    1    1    2  501    0  0.17516328306E+02 -0.69726166025E+02 -0.64077150719E+03  0.66759694757E+03  0.17300000000E+03 0.  1.
         -6    1    1    2    0  502 -0.17516328306E+02  0.69726166025E+02  0.30449593768E+03  0.35751270754E+03  0.17300000000E+03 0.  1.
<mgrwt>
<rscale>  2 0.18734343E+03</rscale>
<asrwt>0</asrwt>
<pdfrwt beam="1">  1       21 0.52987237E-01 0.18734343E+03</pdfrwt>
<pdfrwt beam="2">  1       21 0.10472194E+00 0.18734343E+03</pdfrwt>
<totfact> 0.24929512E+03</totfact>
</mgrwt>
</event>
<event>
 4    1  0.4263413E+000  0.2306326E+03  0.7546771E-02  0.1126195E+00
         21   -1    0    0  503  502  0.00000000000E+00  0.00000000000E+00  0.15980826479E+04  0.15980826479E+04  0.00000000000E+00 0. -1.
         21   -1    0    0  501  503 -0.00000000000E+00 -0.00000000000E+00 -0.61013179185E+02  0.61013179185E+02  0.00000000000E+00 0.  1.
          6    1    1    2  501    0 -0.34034294585E+02  0.14867428462E+03  0.20929983288E+03  0.31144469198E+03  0.17300000000E+03 0.  1.
         -6    1    1    2    0  502  0.34034294585E+02 -0.14867428462E+03  0.13277696358E+04  0.13476511351E+04  0.17300000000E+03 0. -1.
<mgrwt>
<rscale>  2 0.23063256E+03</rscale>
<asrwt>0</asrwt>
<pdfrwt beam="1">  1       21 0.24585884E+00 0.23063256E+03</pdfrwt>
<pdfrwt beam="2">  1       21 0.93866442E-02 0.23063256E+03</pdfrwt>
<totfact> 0.61583387E+03</totfact>
</mgrwt>
</event>
<event>
 4    1  0.4263413E+000  0.2400556E+03  0.7546771E-02  0.1119756E+00
         21   -1    0    0  503  502  0.00000000000E+00  0.00000000000E+00  0.20815373258E+03  0.20815373258E+03  0.00000000000E+00 0. -1.
         21   -1    0    0  501  503 -0.00000000000E+00 -0.00000000000E+00 -0.28598324796E+03  0.28598324796E+03  0.00000000000E+00 0.  1.
          6    1    1    2  501    0 -0.16575754050E+03 -0.14904772247E+02 -0.83075209470E+02  0.25402402425E+03  0.17300000000E+03 0.  1.
         -6    1    1    2    0  502  0.16575754050E+03  0.14904772247E+02  0.52456940864E+01  0.24011295628E+03  0.17300000000E+03 0. -1.
<mgrwt>
<rscale>  2 0.24005565E+03</rscale>
<asrwt>0</asrwt>
<pdfrwt beam="1">  1       21 0.32023651E-01 0.24005565E+03</pdfrwt>
<pdfrwt beam="2">  1       21 0.43997423E-01 0.24005565E+03</pdfrwt>
<totfact> 0.45530888E+04</totfact>
</mgrwt>
</event>
<event>
 4    1  0.4263413E+000  0.2062143E+03  0.7546771E-02  0.1144599E+00
         21   -1    0    0  503  502  0.00000000000E+00  0.00000000000E+00  0.10965732522E+03  0.10965732522E+03  0.00000000000E+00 0.  1.
         21   -1    0    0  501  503 -0.00000000000E+00 -0.00000000000E+00 -0.40550215866E+03  0.40550215866E+03  0.00000000000E+00 0.  1.
          6    1    1    2  501    0 -0.21216127966E+02 -0.11020532364E+03 -0.20175121907E+03  0.28849244676E+03  0.17300000000E+03 0.  1.
         -6    1    1    2    0  502  0.21216127966E+02  0.11020532364E+03 -0.94093614373E+02  0.22666703711E+03  0.17300000000E+03 0.  1.
<mgrwt>
<rscale>  2 0.20621430E+03</rscale>
<asrwt>0</asrwt>
<pdfrwt beam="1">  1       21 0.16870357E-01 0.20621430E+03</pdfrwt>
<pdfrwt beam="2">  1       21 0.62384948E-01 0.20621430E+03</pdfrwt>
<totfact> 0.74929812E+04</totfact>
</mgrwt>
</event>
<event>
 4    1  0.4263413E+000  0.4039641E+03  0.7546771E-02  0.1042416E+00
         21   -1    0    0  503  502  0.00000000000E+00  0.00000000000E+00  0.22223105437E+03  0.22223105437E+03  0.00000000000E+00 0.  1.
         21   -1    0    0  501  503 -0.00000000000E+00 -0.00000000000E+00 -0.13686724660E+04  0.13686724660E+04  0.00000000000E+00 0. -1.
          6    1    1    2  501    0 -0.35971520068E+03 -0.62152728952E+02 -0.11147625859E+04  0.11856992073E+04  0.17300000000E+03 0. -1.
         -6    1    1    2    0  502  0.35971520068E+03  0.62152728952E+02 -0.31678825732E+02  0.40520431305E+03  0.17300000000E+03 0.  1.
<mgrwt>
<rscale>  2 0.40396409E+03</rscale>
<asrwt>0</asrwt>
<pdfrwt beam="1">  1       21 0.34189393E-01 0.40396409E+03</pdfrwt>
<pdfrwt beam="2">  1       21 0.21056500E+00 0.40396409E+03</pdfrwt>
<totfact> 0.80413876E+02</totfact>
</mgrwt>
</event>
<event>
 4    1  0.4263413E+000  0.1927265E+03  0.7546771E-02  0.1156025E+00
         21   -1    0    0  503  502  0.00000000000E+00  0.00000000000E+00  0.10680832346E+03  0.10680832346E+03  0.00000000000E+00 0. -1.
         21   -1    0    0  501  503 -0.00000000000E+00 -0.00000000000E+00 -0.46463716978E+03  0.46463716978E+03  0.00000000000E+00 0.  1.
          6    1    1    2  501    0 -0.68344667356E+02 -0.50433167648E+02 -0.32221751090E+03  0.37545655180E+03  0.17300000000E+03 0.  1.
         -6    1    1    2    0  502  0.68344667356E+02  0.50433167648E+02 -0.35611335415E+02  0.19598894144E+03  0.17300000000E+03 0. -1.
<mgrwt>
<rscale>  2 0.19272648E+03</rscale>
<asrwt>0</asrwt>
<pdfrwt beam="1">  1       21 0.16432050E-01 0.19272648E+03</pdfrwt>
<pdfrwt beam="2">  1       21 0.71482641E-01 0.19272648E+03</pdfrwt>
<totfact> 0.58746694E+04</totfact>
</mgrwt>
</event>
<event>
 4    1  0.4263413E+000  0.2552537E+03  0.7546771E-02  0.1110029E+00
         21   -1    0    0  503  502  0.00000000000E+00  0.00000000000E+00  0.14439220813E+03  0.14439220813E+03  0.00000000000E+00 0.  1.
         21   -1    0    0  501  503 -0.00000000000E+00 -0.00000000000E+00 -0.63100617558E+03  0.63100617558E+03  0.00000000000E+00 0. -1.
          6    1    1    2  501    0 -0.17903524174E+03  0.56318857546E+02 -0.45024551082E+03  0.51756685705E+03  0.17300000000E+03 0. -1.
         -6    1    1    2    0  502  0.17903524174E+03 -0.56318857546E+02 -0.36368456624E+02  0.25783152666E+03  0.17300000000E+03 0.  1.
<mgrwt>
<rscale>  2 0.25525366E+03</rscale>
<asrwt>0</asrwt>
<pdfrwt beam="1">  1       21 0.22214186E-01 0.25525366E+03</pdfrwt>
<pdfrwt beam="2">  1       21 0.97077873E-01 0.25525366E+03</pdfrwt>
<totfact> 0.16094986E+04</totfact>
</mgrwt>
</event>
<event>
 4    1  0.4263413E+000  0.2118995E+03  0.7546771E-02  0.1140071E+00
         21   -1    0    0  501  502  0.00000000000E+00  0.00000000000E+00  0.35880894275E+03  0.35880894275E+03  0.00000000000E+00 0.  1.
         21   -1    0    0  502  503 -0.00000000000E+00 -0.00000000000E+00 -0.13327092704E+03  0.13327092704E+03  0.00000000000E+00 0.  1.
          6    1    1    2  501    0  0.90069615065E+02  0.82824263225E+02  0.17354117486E+03  0.27389401875E+03  0.17300000000E+03 0.  1.
         -6    1    1    2    0  503 -0.90069615065E+02 -0.82824263225E+02  0.51996840852E+02  0.21818585104E+03  0.17300000000E+03 0.  1.
<mgrwt>
<rscale>  2 0.21189949E+03</rscale>
<asrwt>0</asrwt>
<pdfrwt beam="1">  1       21 0.55201375E-01 0.21189949E+03</pdfrwt>
<pdfrwt beam="2">  1       21 0.20503220E-01 0.21189949E+03</pdfrwt>
<totfact> 0.67615986E+04</totfact>
</mgrwt>
</event>
<event>
 4    1  0.4263413E+000  0.1801083E+03  0.7546771E-02  0.1167698E+00
         21   -1    0    0  503  502  0.00000000000E+00  0.00000000000E+00  0.36906568031E+03  0.36906568031E+03  0.00000000000E+00 0.  1.
         21   -1    0    0  501  503 -0.00000000000E+00 -0.00000000000E+00 -0.10321244686E+03  0.10321244686E+03  0.00000000000E+00 0.  1.
          6    1    1    2  501    0 -0.11143655073E+02  0.48844824480E+02  0.41957046101E+02  0.18493077528E+03  0.17300000000E+03 0.  1.
         -6    1    1    2    0  502  0.11143655073E+02 -0.48844824480E+02  0.22389618735E+03  0.28734735189E+03  0.17300000000E+03 0.  1.
<mgrwt>
<rscale>  2 0.18010829E+03</rscale>
<asrwt>0</asrwt>
<pdfrwt beam="1">  1       21 0.56779335E-01 0.18010829E+03</pdfrwt>
<pdfrwt beam="2">  1       21 0.15878838E-01 0.18010829E+03</pdfrwt>
<totfact> 0.10357034E+05</totfact>
</mgrwt>
</event>
<event>
 4    1  0.4263413E+000  0.2164240E+03  0.7546771E-02  0.1136578E+00
         21   -1    0    0  503  502  0.00000000000E+00  0.00000000000E+00  0.39864387040E+03  0.39864387040E+03  0.00000000000E+00 0.  1.
         21   -1    0    0  501  503 -0.00000000000E+00 -0.00000000000E+00 -0.13381323525E+03  0.13381323525E+03  0.00000000000E+00 0.  1.
          6    1    1    2  501    0 -0.83624349475E+02 -0.99585683285E+02  0.39450410861E+02  0.21999017037E+03  0.17300000000E+03 0.  1.
         -6    1    1    2    0  502  0.83624349475E+02  0.99585683285E+02  0.22538022429E+03  0.31246693528E+03  0.17300000000E+03 0.  1.
<mgrwt>
<rscale>  2 0.21642398E+03</rscale>
<asrwt>0</asrwt>
<pdfrwt beam="1">  1       21 0.61329826E-01 0.21642398E+03</pdfrwt>
<pdfrwt beam="2">  1       21 0.20586652E-01 0.21642398E+03</pdfrwt>
<totfact> 0.53449728E+04</totfact>
</mgrwt>
</event>
<event>
 4    1  0.4263413E+000  0.2282904E+03  0.7546771E-02  0.1127849E+00
         21   -1    0    0  503  502  0.00000000000E+00  0.00000000000E+00  0.98453368523E+02  0.98453368523E+02  0.00000000000E+00 0.  1.
         21   -1    0    0  501  503 -0.00000000000E+00 -0.00000000000E+00 -0.69906912308E+03  0.69906912308E+03  0.00000000000E+00 0. -1.
          6    1    1    2  501    0 -0.42075738233E+02 -0.14288859475E+03 -0.49678650462E+03  0.54672968588E+03  0.17300000000E+03 0.  1.
         -6    1    1    2    0  502  0.42075738233E+02  0.14288859475E+03 -0.10382924994E+03  0.25079280572E+03  0.17300000000E+03 0. -1.
<mgrwt>
<rscale>  2 0.22829043E+03</rscale>
<asrwt>0</asrwt>
<pdfrwt beam="1">  1       21 0.15146672E-01 0.22829043E+03</pdfrwt>
<pdfrwt beam="2">  1       21 0.10754909E+00 0.22829043E+03</pdfrwt>
<totfact> 0.26044986E+04</totfact>
</mgrwt>
</event>
<event>
 4    1  0.4263413E+000  0.1871840E+03  0.7546771E-02  0.1161026E+00
         21   -1    0    0  503  502  0.00000000000E+00  0.00000000000E+00  0.10118596942E+03  0.10118596942E+03  0.00000000000E+00 0. -1.
         21   -1    0    0  501  503 -0.00000000000E+00 -0.00000000000E+00 -0.69844332089E+03  0.69844332089E+03  0.00000000000E+00 0. -1.
          6    1    1    2  501    0  0.51996953892E+02 -0.49042494152E+02 -0.58253183157E+03  0.61186696613E+03  0.17300000000E+03 0. -1.
         -6    1    1    2    0  502 -0.51996953892E+02  0.49042494152E+02 -0.14725519908E+02  0.18776232418E+03  0.17300000000E+03 0. -1.
<mgrwt>
<rscale>  2 0.18718400E+03</rscale>
<asrwt>0</asrwt>
<pdfrwt beam="1">  1       21 0.15567072E-01 0.18718400E+03</pdfrwt>
<pdfrwt beam="2">  1       21 0.10745282E+00 0.18718400E+03</pdfrwt>
<totfact> 0.25419709E+04</totfact>
</mgrwt>
</event>
<event>
 4    1  0.4263413E+000  0.3117916E+03  0.7546771E-02  0.1079490E+00
         21   -1    0    0  501  502  0.00000000000E+00  0.00000000000E+00  0.56229900202E+03  0.56229900202E+03  0.00000000000E+00 0.  1.
         21   -1    0    0  502  503 -0.00000000000E+00 -0.00000000000E+00 -0.27973449817E+03  0.27973449817E+03  0.00000000000E+00 0. -1.
          6    1    1    2  501    0  0.21861155865E+03 -0.13962088665E+03  0.40148339295E+03  0.50833347360E+03  0.17300000000E+03 0.  1.
         -6    1    1    2    0  503 -0.21861155865E+03  0.13962088665E+03 -0.11891888911E+03  0.33370002659E+03  0.17300000000E+03 0. -1.
<mgrwt>
<rscale>  2 0.31179161E+03</rscale>
<asrwt>0</asrwt>
<pdfrwt beam="1">  1       21 0.86507538E-01 0.31179161E+03</pdfrwt>
<pdfrwt beam="2">  1       21 0.43036077E-01 0.31179161E+03</pdfrwt>
<totfact> 0.55548902E+03</totfact>
</mgrwt>
</event>
<event>
 4    1  0.4263413E+000  0.1734753E+03  0.7546771E-02  0.1174271E+00
         21   -1    0    0  503  502  0.00000000000E+00  0.00000000000E+00  0.19477417831E+03  0.19477417831E+03  0.00000000000E+00 0.  1.
         21   -1    0    0  501  503 -0.00000000000E+00 -0.00000000000E+00 -0.56102317412E+03  0.56102317412E+03  0.00000000000E+00 0.  1.
          6    1    1    2  501    0 -0.12603376588E+02  0.24167955536E+01 -0.50480495310E+03  0.53378059788E+03  0.17300000000E+03 0.  1.
         -6    1    1    2    0  502  0.12603376588E+02 -0.24167955536E+01  0.13855595729E+03  0.22201675455E+03  0.17300000000E+03 0.  1.
<mgrwt>
<rscale>  2 0.17347532E+03</rscale>
<asrwt>0</asrwt>
<pdfrwt beam="1">  1       21 0.29965258E-01 0.17347532E+03</pdfrwt>
<pdfrwt beam="2">  1       21 0.86311257E-01 0.17347532E+03</pdfrwt>
<totfact> 0.12519386E+04</totfact>
</mgrwt>
</event>
<event>
 4    1  0.4263413E+000  0.2855156E+03  0.7546771E-02  0.1092714E+00
         21   -1    0    0  503  502  0.00000000000E+00  0.00000000000E+00  0.10755874707E+04  0.10755874707E+04  0.00000000000E+00 0.  1.
         21   -1    0    0  501  503 -0.00000000000E+00 -0.00000000000E+00 -0.85437034088E+02  0.85437034088E+02  0.00000000000E+00 0. -1.
          6    1    1    2  501    0 -0.20242974881E+03  0.10301621733E+03  0.30001106118E+03  0.41415671076E+03  0.17300000000E+03 0.  1.
         -6    1    1    2    0  502  0.20242974881E+03 -0.10301621733E+03  0.69013937541E+03  0.74686779401E+03  0.17300000000E+03 0.  1.
<mgrwt>
<rscale>  2 0.28551558E+03</rscale>
<asrwt>0</asrwt>
<pdfrwt beam="1">  1       21 0.16547499E+00 0.28551558E+03</pdfrwt>
<pdfrwt beam="2">  1       21 0.13144160E-01 0.28551558E+03</pdfrwt>
<totfact> 0.10780942E+04</totfact>
</mgrwt>
</event>
<event>
 4    1  0.4263413E+000  0.2729357E+03  0.7546771E-02  0.1099611E+00
         21   -1    0    0  503  502  0.00000000000E+00  0.00000000000E+00  0.33643902427E+03  0.33643902427E+03  0.00000000000E+00 0. -1.
         21   -1    0    0  501  503 -0.00000000000E+00 -0.00000000000E+00 -0.45576426786E+03  0.45576426786E+03  0.00000000000E+00 0.  1.
          6    1    1    2  501    0 -0.17539813814E+03  0.11747499428E+03 -0.34369307766E+03  0.43888359821E+03  0.17300000000E+03 0.  1.
         -6    1    1    2    0  502  0.17539813814E+03 -0.11747499428E+03  0.22436783407E+03  0.35331969392E+03  0.17300000000E+03 0. -1.
<mgrwt>
<rscale>  2 0.27293567E+03</rscale>
<asrwt>0</asrwt>
<pdfrwt beam="1">  1       21 0.51759850E-01 0.27293567E+03</pdfrwt>
<pdfrwt beam="2">  1       21 0.70117580E-01 0.27293567E+03</pdfrwt>
<totfact> 0.62130633E+03</totfact>
</mgrwt>
</event>
<event>
 4    1  0.4263413E+000  0.2505322E+03  0.7546771E-02  0.1112969E+00
         21   -1    0    0  503  502  0.00000000000E+00  0.00000000000E+00  0.68073474296E+03  0.68073474296E+03  0.00000000000E+00 0. -1.
         21   -1    0    0  501  503 -0.00000000000E+00 -0.00000000000E+00 -0.92227322921E+02  0.92227322921E+02  0.00000000000E+00 0. -1.
          6    1    1    2  501    0 -0.23203317205E+02 -0.17971925282E+03  0.28809566724E+03  0.38179250548E+03  0.17300000000E+03 0. -1.
         -6    1    1    2    0  502  0.23203317205E+02  0.17971925282E+03  0.30041175281E+03  0.39116956040E+03  0.17300000000E+03 0. -1.
<mgrwt>
<rscale>  2 0.25053224E+03</rscale>
<asrwt>0</asrwt>
<pdfrwt beam="1">  1       21 0.10472842E+00 0.25053224E+03</pdfrwt>
<pdfrwt beam="2">  1       21 0.14188819E-01 0.25053224E+03</pdfrwt>
<totfact> 0.30957596E+04</totfact>
</mgrwt>
</event>
<event>
 4    1  0.4263413E+000  0.1852821E+03  0.7546771E-02  0.1162787E+00
         21   -1    0    0  503  502  0.00000000000E+00  0.00000000000E+00  0.11791862576E+03  0.11791862576E+03  0.00000000000E+00 0. -1.
         21   -1    0    0  501  503 -0.00000000000E+00 -0.00000000000E+00 -0.52360661222E+03  0.52360661222E+03  0.00000000000E+00 0. -1.
          6    1    1    2  501    0  0.32585147593E+02 -0.57781023950E+02 -0.41657744258E+03  0.45592346313E+03  0.17300000000E+03 0. -1.
         -6    1    1    2    0  502 -0.32585147593E+02  0.57781023950E+02  0.10889456113E+02  0.18560177485E+03  0.17300000000E+03 0. -1.
<mgrwt>
<rscale>  2 0.18528205E+03</rscale>
<asrwt>0</asrwt>
<pdfrwt beam="1">  1       21 0.18141327E-01 0.18528205E+03</pdfrwt>
<pdfrwt beam="2">  1       21 0.80554863E-01 0.18528205E+03</pdfrwt>
<totfact> 0.37612552E+04</totfact>
</mgrwt>
</event>
<event>
 4    1  0.4263413E+000  0.2184308E+03  0.7546771E-02  0.1135058E+00
         21   -1    0    0  503  502  0.00000000000E+00  0.00000000000E+00  0.87301145904E+03  0.87301145904E+03  0.00000000000E+00 0. -1.
         21   -1    0    0  501  503 -0.00000000000E+00 -0.00000000000E+00 -0.55095942275E+02  0.55095942275E+02  0.00000000000E+00 0.  1.
          6    1    1    2  501    0 -0.17929234231E+02  0.13214226253E+03  0.45060176086E+03  0.50075341424E+03  0.17300000000E+03 0.  1.
         -6    1    1    2    0  502  0.17929234231E+02 -0.13214226253E+03  0.36731375591E+03  0.42735398708E+03  0.17300000000E+03 0.  1.
<mgrwt>
<rscale>  2 0.21843085E+03</rscale>
<asrwt>0</asrwt>
<pdfrwt beam="1">  1       21 0.13430945E+00 0.21843085E+03</pdfrwt>
<pdfrwt beam="2">  1       21 0.84762994E-02 0.21843085E+03</pdfrwt>
<totfact> 0.42569198E+04</totfact>
</mgrwt>
</event>
<event>
 4    1  0.4263413E+000  0.2286307E+03  0.7546771E-02  0.1127607E+00
         21   -1    0    0  501  502  0.00000000000E+00  0.00000000000E+00  0.18102429317E+03  0.18102429317E+03  0.00000000000E+00 0. -1.
         21   -1    0    0  502  503 -0.00000000000E+00 -0.00000000000E+00 -0.36234340863E+03  0.36234340863E+03  0.00000000000E+00 0. -1.
          6    1    1    2  501    0  0.16040391309E+02 -0.14861265203E+03  0.31774636663E+02  0.23082816560E+03  0.17300000000E+03 0. -1.
         -6    1    1    2    0  503 -0.16040391309E+02  0.14861265203E+03 -0.21309375213E+03  0.31253953621E+03  0.17300000000E+03 0. -1.
<mgrwt>
<rscale>  2 0.22863074E+03</rscale>
<asrwt>0</asrwt>
<pdfrwt beam="1">  1       21 0.27849891E-01 0.22863074E+03</pdfrwt>
<pdfrwt beam="2">  1       21 0.55745139E-01 0.22863074E+03</pdfrwt>
<totfact> 0.36651883E+04</totfact>
</mgrwt>
</event>
<event>
 4    1  0.4263413E+000  0.2083843E+03  0.7546771E-02  0.1142852E+00
         21   -1    0    0  503  502  0.00000000000E+00  0.00000000000E+00  0.10395266977E+03  0.10395266977E+03  0.00000000000E+00 0. -1.
         21   -1    0    0  501  503 -0.00000000000E+00 -0.00000000000E+00 -0.53567105773E+03  0.53567105773E+03  0.00000000000E+00 0. -1.
          6    1    1    2  501    0  0.11601960923E+03 -0.58699162020E+01 -0.36592457766E+03  0.42109951576E+03  0.17300000000E+03 0. -1.
         -6    1    1    2    0  502 -0.11601960923E+03  0.58699162020E+01 -0.65793810305E+02  0.21852421174E+03  0.17300000000E+03 0. -1.
<mgrwt>
<rscale>  2 0.20838427E+03</rscale>
<asrwt>0</asrwt>
<pdfrwt beam="1">  1       21 0.15992719E-01 0.20838427E+03</pdfrwt>
<pdfrwt beam="2">  1       21 0.82410931E-01 0.20838427E+03</pdfrwt>
<totfact> 0.44512838E+04</totfact>
</mgrwt>
</event>
<event>
 4    1  0.4263413E+000  0.2158474E+03  0.7546771E-02  0.1137017E+00
         21   -1    0    0  501  502  0.00000000000E+00  0.00000000000E+00  0.16437732263E+03  0.16437732263E+03  0.00000000000E+00 0.  1.
         21   -1    0    0  502  503 -0.00000000000E+00 -0.00000000000E+00 -0.31388211556E+03  0.31388211556E+03  0.00000000000E+00 0.  1.
          6    1    1    2  501    0 -0.63012948862E+02  0.11265198898E+03 -0.27382582695E+00  0.21584757892E+03  0.17300000000E+03 0.  1.
         -6    1    1    2    0  503  0.63012948862E+02 -0.11265198898E+03 -0.14923096710E+03  0.26241185927E+03  0.17300000000E+03 0.  1.
<mgrwt>
<rscale>  2 0.21584741E+03</rscale>
<asrwt>0</asrwt>
<pdfrwt beam="1">  1       21 0.25288819E-01 0.21584741E+03</pdfrwt>
<pdfrwt beam="2">  1       21 0.48289556E-01 0.21584741E+03</pdfrwt>
<totfact> 0.60062424E+04</totfact>
</mgrwt>
</event>
<event>
 4    1  0.4263413E+000  0.2802694E+03  0.7546771E-02  0.1095542E+00
         21   -1    0    0  501  502  0.00000000000E+00  0.00000000000E+00  0.20020548483E+04  0.20020548483E+04  0.00000000000E+00 0.  1.
         21   -1    0    0  502  503 -0.00000000000E+00 -0.00000000000E+00 -0.44531678402E+02  0.44531678402E+02  0.00000000000E+00 0. -1.
          6    1    1    2  501    0 -0.70326353708E+02  0.20898837179E+03  0.13316691463E+04  0.13608429927E+04  0.17300000000E+03 0.  1.
         -6    1    1    2    0  503  0.70326353708E+02 -0.20898837179E+03  0.62585402359E+03  0.68574353399E+03  0.17300000000E+03 0. -1.
<mgrwt>
<rscale>  2 0.28026940E+03</rscale>
<asrwt>0</asrwt>
<pdfrwt beam="1">  1       21 0.30800837E+00 0.28026940E+03</pdfrwt>
<pdfrwt beam="2">  1       21 0.68510290E-02 0.28026940E+03</pdfrwt>
<totfact> 0.44197296E+03</totfact>
</mgrwt>
</event>
<event>
 4    1  0.4263413E+000  0.2349562E+03  0.7546771E-02  0.1123199E+00
         21   -1    0    0  503  502  0.00000000000E+00  0.00000000000E+00  0.67974360042E+03  0.67974360042E+03  0.00000000000E+00 0. -1.
         21   -1    0    0  501  503 -0.00000000000E+00 -0.00000000000E+00 -0.10853956624E+03  0.10853956624E+03  0.00000000000E+00 0.  1.
          6    1    1    2  501    0 -0.15896953540E+03 -0.20296700269E+01  0.87838631807E+02  0.25083870910E+03  0.17300000000E+03 0.  1.
         -6    1    1    2    0  502  0.15896953540E+03  0.20296700269E+01  0.48336540237E+03  0.53744445755E+03  0.17300000000E+03 0. -1.
<mgrwt>
<rscale>  2 0.23495624E+03</rscale>
<asrwt>0</asrwt>
<pdfrwt beam="1">  1       21 0.10457594E+00 0.23495624E+03</pdfrwt>
<pdfrwt beam="2">  1       21 0.16698395E-01 0.23495624E+03</pdfrwt>
<totfact> 0.23218050E+04</totfact>
</mgrwt>
</event>
<event>
 4    1  0.4263413E+000  0.3256820E+03  0.7546771E-02  0.1073064E+00
         21   -1    0    0  501  502  0.00000000000E+00  0.00000000000E+00  0.11283976629E+04  0.11283976629E+04  0.00000000000E+00 0.  1.
         21   -1    0    0  502  503 -0.00000000000E+00 -0.00000000000E+00 -0.10696762971E+03  0.10696762971E+03  0.00000000000E+00 0. -1.
          6    1    1    2  501    0 -0.27077472472E+03  0.53111572802E+02  0.72578423841E+03  0.79550710332E+03  0.17300000000E+03 0.  1.
         -6    1    1    2    0  503  0.27077472472E+03 -0.53111572802E+02  0.29564579478E+03  0.43985818929E+03  0.17300000000E+03 0. -1.
<mgrwt>
<rscale>  2 0.32568204E+03</rscale>
<asrwt>0</asrwt>
<pdfrwt beam="1">  1       21 0.17359963E+00 0.32568204E+03</pdfrwt>
<pdfrwt beam="2">  1       21 0.16456559E-01 0.32568204E+03</pdfrwt>
<totfact> 0.61088041E+03</totfact>
</mgrwt>
</event>
<event>
 4    1  0.4263413E+000  0.1942411E+03  0.7546771E-02  0.1154691E+00
         21   -1    0    0  501  502  0.00000000000E+00  0.00000000000E+00  0.26719570133E+03  0.26719570133E+03  0.00000000000E+00 0.  1.
         21   -1    0    0  502  503 -0.00000000000E+00 -0.00000000000E+00 -0.17006117923E+03  0.17006117923E+03  0.00000000000E+00 0.  1.
          6    1    1    2  501    0 -0.29289447076E+02  0.83323046064E+02  0.13862414643E+03  0.23863414611E+03  0.17300000000E+03 0. -1.
         -6    1    1    2    0  503  0.29289447076E+02 -0.83323046064E+02 -0.41489624325E+02  0.19862273445E+03  0.17300000000E+03 0. -1.
<mgrwt>
<rscale>  2 0.19424109E+03</rscale>
<asrwt>0</asrwt>
<pdfrwt beam="1">  1       21 0.41107031E-01 0.19424109E+03</pdfrwt>
<pdfrwt beam="2">  1       21 0.26163259E-01 0.19424109E+03</pdfrwt>
<totfact> 0.79086023E+04</totfact>
</mgrwt>
</event>
<event>
 4    1  0.4263413E+000  0.2522135E+03  0.7546771E-02  0.1111914E+00
         21   -1    0    0  501  502  0.00000000000E+00  0.00000000000E+00  0.37755130514E+03  0.37755130514E+03  0.00000000000E+00 0. -1.
         21   -1    0    0  502  503 -0.00000000000E+00 -0.00000000000E+00 -0.17037493674E+03  0.17037493674E+03  0.00000000000E+00 0. -1.
          6    1    1    2  501    0 -0.14246415788E+03 -0.11570043050E+03  0.13244477786E+03  0.28487408637E+03  0.17300000000E+03 0. -1.
         -6    1    1    2    0  503  0.14246415788E+03  0.11570043050E+03  0.74731590532E+02  0.26305215552E+03  0.17300000000E+03 0. -1.
<mgrwt>
<rscale>  2 0.25221345E+03</rscale>
<asrwt>0</asrwt>
<pdfrwt beam="1">  1       21 0.58084816E-01 0.25221345E+03</pdfrwt>
<pdfrwt beam="2">  1       21 0.26211529E-01 0.25221345E+03</pdfrwt>
<totfact> 0.37355145E+04</totfact>
</mgrwt>
</event>
<event>
 4    1  0.4263413E+000  0.1845473E+03  0.7546771E-02  0.1163473E+00
         21   -1    0    0  501  502  0.00000000000E+00  0.00000000000E+00  0.31518182247E+03  0.31518182247E+03  0.00000000000E+00 0.  1.
         21   -1    0    0  502  503 -0.00000000000E+00 -0.00000000000E+00 -0.12590164125E+03  0.12590164125E+03  0.00000000000E+00 0.  1.
          6    1    1    2  501    0 -0.19071994030E+02 -0.61359408907E+02  0.17766808047E+03  0.25617116316E+03  0.17300000000E+03 0.  1.
         -6    1    1    2    0  503  0.19071994030E+02  0.61359408907E+02  0.11612100754E+02  0.18491230057E+03  0.17300000000E+03 0.  1.
<mgrwt>
<rscale>  2 0.18454733E+03</rscale>
<asrwt>0</asrwt>
<pdfrwt beam="1">  1       21 0.48489511E-01 0.18454733E+03</pdfrwt>
<pdfrwt beam="2">  1       21 0.19369483E-01 0.18454733E+03</pdfrwt>
<totfact> 0.99828991E+04</totfact>
</mgrwt>
</event>
<event>
 4    1  0.4263413E+000  0.2169239E+03  0.7546771E-02  0.1136197E+00
         21   -1    0    0  503  502  0.00000000000E+00  0.00000000000E+00  0.44691319610E+02  0.44691319610E+02  0.00000000000E+00 0. -1.
         21   -1    0    0  501  503 -0.00000000000E+00 -0.00000000000E+00 -0.10594286114E+04  0.10594286114E+04  0.00000000000E+00 0. -1.
          6    1    1    2  501    0  0.17193223385E+02 -0.12973583738E+03 -0.46406889636E+03  0.51226549269E+03  0.17300000000E+03 0. -1.
         -6    1    1    2    0  502 -0.17193223385E+02  0.12973583738E+03 -0.55066839539E+03  0.59185443828E+03  0.17300000000E+03 0. -1.
<mgrwt>
<rscale>  2 0.21692394E+03</rscale>
<asrwt>0</asrwt>
<pdfrwt beam="1">  1       21 0.68755884E-02 0.21692394E+03</pdfrwt>
<pdfrwt beam="2">  1       21 0.16298900E+00 0.21692394E+03</pdfrwt>
<totfact> 0.36804952E+04</totfact>
</mgrwt>
</event>
<event>
 4    1  0.4263413E+000  0.3172944E+03  0.7546771E-02  0.1076901E+00
         21   -1    0    0  503  502  0.00000000000E+00  0.00000000000E+00  0.10031133970E+04  0.10031133970E+04  0.00000000000E+00 0.  1.
         21   -1    0    0  501  503 -0.00000000000E+00 -0.00000000000E+00 -0.14847281489E+03  0.14847281489E+03  0.00000000000E+00 0. -1.
          6    1    1    2  501    0  0.12194887912E+03 -0.23637939090E+03  0.75508228423E+03  0.81903907204E+03  0.17300000000E+03 0. -1.
         -6    1    1    2    0  502 -0.12194887912E+03  0.23637939090E+03  0.99558297896E+02  0.33254713988E+03  0.17300000000E+03 0. -1.
<mgrwt>
<rscale>  2 0.31729441E+03</rscale>
<asrwt>0</asrwt>
<pdfrwt beam="1">  1       21 0.15432513E+00 0.31729441E+03</pdfrwt>
<pdfrwt beam="2">  1       21 0.22841972E-01 0.31729441E+03</pdfrwt>
<totfact> 0.45844135E+03</totfact>
</mgrwt>
</event>
<event>
 4    1  0.4263413E+000  0.1792920E+03  0.7546771E-02  0.1168490E+00
         21   -1    0    0  503  502  0.00000000000E+00  0.00000000000E+00  0.33583503146E+02  0.33583503146E+02  0.00000000000E+00 0.  1.
         21   -1    0    0  501  503 -0.00000000000E+00 -0.00000000000E+00 -0.11522683281E+04  0.11522683281E+04  0.00000000000E+00 0.  1.
          6    1    1    2  501    0  0.17385527513E+02 -0.43753302843E+02 -0.80331120386E+03  0.82307624090E+03  0.17300000000E+03 0.  1.
         -6    1    1    2    0  502 -0.17385527513E+02  0.43753302843E+02 -0.31537362112E+03  0.36277559038E+03  0.17300000000E+03 0.  1.
<mgrwt>
<rscale>  2 0.17929196E+03</rscale>
<asrwt>0</asrwt>
<pdfrwt beam="1">  1       21 0.51666930E-02 0.17929196E+03</pdfrwt>
<pdfrwt beam="2">  1       21 0.17727204E+00 0.17929196E+03</pdfrwt>
<totfact> 0.48726926E+04</totfact>
</mgrwt>
</event>
<event>
 4    1  0.4263413E+000  0.3039739E+03  0.7546771E-02  0.1083271E+00
         21   -1    0    0  503  502  0.00000000000E+00  0.00000000000E+00  0.22554090079E+03  0.22554090079E+03  0.00000000000E+00 0. -1.
         21   -1    0    0  501  503 -0.00000000000E+00 -0.00000000000E+00 -0.58311464464E+03  0.58311464464E+03  0.00000000000E+00 0.  1.
          6    1    1    2  501    0  0.52594083032E+02 -0.24434608597E+03 -0.39929340819E+03  0.50183201684E+03  0.17300000000E+03 0.  1.
         -6    1    1    2    0  502 -0.52594083032E+02  0.24434608597E+03  0.41719664345E+02  0.30682352858E+03  0.17300000000E+03 0. -1.
<mgrwt>
<rscale>  2 0.30397393E+03</rscale>
<asrwt>0</asrwt>
<pdfrwt beam="1">  1       21 0.34698600E-01 0.30397393E+03</pdfrwt>
<pdfrwt beam="2">  1       21 0.89709946E-01 0.30397393E+03</pdfrwt>
<totfact> 0.79361711E+03</totfact>
</mgrwt>
</event>
<event>
 4    1  0.4263413E+000  0.2171930E+03  0.7546771E-02  0.1135993E+00
         21   -1    0    0  501  502  0.00000000000E+00  0.00000000000E+00  0.10989981640E+03  0.10989981640E+03  0.00000000000E+00 0.  1.
         21   -1    0    0  502  503 -0.00000000000E+00 -0.00000000000E+00 -0.49086397821E+03  0.49086397821E+03  0.00000000000E+00 0. -1.
          6    1    1    2  501    0  0.62407724135E+02 -0.11553823689E+03 -0.84046478157E+02  0.23288756666E+03  0.17300000000E+03 0.  1.
         -6    1    1    2    0  503 -0.62407724135E+02  0.11553823689E+03 -0.29691768365E+03  0.36787622794E+03  0.17300000000E+03 0. -1.
<mgrwt>
<rscale>  2 0.21719302E+03</rscale>
<asrwt>0</asrwt>
<pdfrwt beam="1">  1       21 0.16907664E-01 0.21719302E+03</pdfrwt>
<pdfrwt beam="2">  1       21 0.75517536E-01 0.21719302E+03</pdfrwt>
<totfact> 0.48748186E+04</totfact>
</mgrwt>
</event>
<event>
 4    1  0.4263413E+000  0.1869126E+03  0.7546771E-02  0.1161276E+00
         21   -1    0    0  501  502  0.00000000000E+00  0.00000000000E+00  0.12662158310E+03  0.12662158310E+03  0.00000000000E+00 0. -1.
         21   -1    0    0  502  503 -0.00000000000E+00 -0.00000000000E+00 -0.42558531635E+03  0.42558531635E+03  0.00000000000E+00 0.  1.
          6    1    1    2  501    0  0.59164150111E+02 -0.38818984365E+02  0.14257044484E+02  0.18745552412E+03  0.17300000000E+03 0. -1.
         -6    1    1    2    0  503 -0.59164150111E+02  0.38818984365E+02 -0.31322077773E+03  0.36475137533E+03  0.17300000000E+03 0.  1.
<mgrwt>
<rscale>  2 0.18691257E+03</rscale>
<asrwt>0</asrwt>
<pdfrwt beam="1">  1       21 0.19480244E-01 0.18691257E+03</pdfrwt>
<pdfrwt beam="2">  1       21 0.65474664E-01 0.18691257E+03</pdfrwt>
<totfact> 0.52151842E+04</totfact>
</mgrwt>
</event>
<event>
 4    1  0.4263413E+000  0.1778822E+03  0.7546771E-02  0.1169869E+00
         21   -1    0    0  503  502  0.00000000000E+00  0.00000000000E+00  0.21293679977E+03  0.21293679977E+03  0.00000000000E+00 0.  1.
         21   -1    0    0  501  503 -0.00000000000E+00 -0.00000000000E+00 -0.14940052765E+03  0.14940052765E+03  0.00000000000E+00 0.  1.
          6    1    1    2  501    0  0.18470213389E+02  0.37039354320E+02  0.18493110534E+02  0.17884087253E+03  0.17300000000E+03 0. -1.
         -6    1    1    2    0  502 -0.18470213389E+02 -0.37039354320E+02  0.45043161583E+02  0.18349645489E+03  0.17300000000E+03 0. -1.
<mgrwt>
<rscale>  2 0.17788216E+03</rscale>
<asrwt>0</asrwt>
<pdfrwt beam="1">  1       21 0.32759508E-01 0.17788216E+03</pdfrwt>
<pdfrwt beam="2">  1       21 0.22984697E-01 0.17788216E+03</pdfrwt>
<totfact> 0.16012391E+05</totfact>
</mgrwt>
</event>
<event>
 4    1  0.4263413E+000  0.2555015E+03  0.7546771E-02  0.1109877E+00
         21   -1    0    0  501  502  0.00000000000E+00  0.00000000000E+00  0.34202238417E+03  0.34202238417E+03  0.00000000000E+00 0. -1.
         21   -1    0    0  502  503 -0.00000000000E+00 -0.00000000000E+00 -0.21200281230E+03  0.21200281230E+03  0.00000000000E+00 0. -1.
          6    1    1    2  501    0  0.18695577596E+03  0.19989218704E+02 -0.22454515733E+02  0.25648632772E+03  0.17300000000E+03 0. -1.
         -6    1    1    2    0  503 -0.18695577596E+03 -0.19989218704E+02  0.15247408760E+03  0.29753886875E+03  0.17300000000E+03 0. -1.
<mgrwt>
<rscale>  2 0.25550153E+03</rscale>
<asrwt>0</asrwt>
<pdfrwt beam="1">  1       21 0.52618828E-01 0.25550153E+03</pdfrwt>
<pdfrwt beam="2">  1       21 0.32615817E-01 0.25550153E+03</pdfrwt>
<totfact> 0.30030157E+04</totfact>
</mgrwt>
</event>
<event>
 4    1  0.4263413E+000  0.1797717E+03  0.7546771E-02  0.1168024E+00
         21   -1    0    0  503  502  0.00000000000E+00  0.00000000000E+00  0.26351148139E+03  0.26351148139E+03  0.00000000000E+00 0. -1.
         21   -1    0    0  501  503 -0.00000000000E+00 -0.00000000000E+00 -0.17553084570E+03  0.17553084570E+03  0.00000000000E+00 0. -1.
          6    1    1    2  501    0 -0.43753843023E+02 -0.21782559935E+02  0.16448752673E+03  0.24366785826E+03  0.17300000000E+03 0. -1.
         -6    1    1    2    0  502  0.43753843023E+02  0.21782559935E+02 -0.76506891045E+02  0.19537446884E+03  0.17300000000E+03 0. -1.
<mgrwt>
<rscale>  2 0.17977174E+03</rscale>
<asrwt>0</asrwt>
<pdfrwt beam="1">  1       21 0.40540228E-01 0.17977174E+03</pdfrwt>
<pdfrwt beam="2">  1       21 0.27004746E-01 0.17977174E+03</pdfrwt>
<totfact> 0.76996875E+04</totfact>
</mgrwt>
</event>
<event>
 4    1  0.4263413E+000  0.1990557E+03  0.7546771E-02  0.1150538E+00
         21   -1    0    0  503  502  0.00000000000E+00  0.00000000000E+00  0.97676311266E+02  0.97676311266E+02  0.00000000000E+00 0.  1.
         21   -1    0    0  501  503 -0.00000000000E+00 -0.00000000000E+00 -0.10150209177E+04  0.10150209177E+04  0.00000000000E+00 0. -1.
          6    1    1    2  501    0 -0.70329477831E+02 -0.68905214285E+02 -0.88974207876E+03  0.91173687582E+03  0.17300000000E+03 0. -1.
         -6    1    1    2    0  502  0.70329477831E+02  0.68905214285E+02 -0.27602527685E+02  0.20096035316E+03  0.17300000000E+03 0.  1.
<mgrwt>
<rscale>  2 0.19905568E+03</rscale>
<asrwt>0</asrwt>
<pdfrwt beam="1">  1       21 0.15027125E-01 0.19905568E+03</pdfrwt>
<pdfrwt beam="2">  1       21 0.15615706E+00 0.19905568E+03</pdfrwt>
<totfact> 0.10454293E+04</totfact>
</mgrwt>
</event>
<event>
 4    1  0.4263413E+000  0.2370861E+03  0.7546771E-02  0.1121749E+00
         21   -1    0    0  501  502  0.00000000000E+00  0.00000000000E+00  0.15462778008E+03  0.15462778008E+03  0.00000000000E+00 0.  1.
         21   -1    0    0  502  503 -0.00000000000E+00 -0.00000000000E+00 -0.97899857248E+03  0.97899857248E+03  0.00000000000E+00 0.  1.
          6    1    1    2  501    0 -0.16081644052E+03 -0.20466388542E+02  0.37238846312E+02  0.23999277547E+03  0.17300000000E+03 0.  1.
         -6    1    1    2    0  503  0.16081644052E+03  0.20466388542E+02 -0.86160963871E+03  0.89363357710E+03  0.17300000000E+03 0.  1.
<mgrwt>
<rscale>  2 0.23708606E+03</rscale>
<asrwt>0</asrwt>
<pdfrwt beam="1">  1       21 0.23788889E-01 0.23708606E+03</pdfrwt>
<pdfrwt beam="2">  1       21 0.15061517E+00 0.23708606E+03</pdfrwt>
<totfact> 0.47538199E+03</totfact>
</mgrwt>
</event>
<event>
 4    1  0.4263413E+000  0.1826370E+03  0.7546771E-02  0.1165275E+00
         21   -1    0    0  503  502  0.00000000000E+00  0.00000000000E+00  0.16779479580E+02  0.16779479580E+02  0.00000000000E+00 0.  1.
         21   -1    0    0  501  503 -0.00000000000E+00 -0.00000000000E+00 -0.22233943992E+04  0.22233943992E+04  0.00000000000E+00 0.  1.
          6    1    1    2  501    0 -0.46406960103E+02  0.35688727144E+02 -0.14678210976E+04  0.14791399751E+04  0.17300000000E+03 0.  1.
         -6    1    1    2    0  502  0.46406960103E+02 -0.35688727144E+02 -0.73879382200E+03  0.76103390372E+03  0.17300000000E+03 0.  1.
<mgrwt>
<rscale>  2 0.18263705E+03</rscale>
<asrwt>0</asrwt>
<pdfrwt beam="1">  1       21 0.25814583E-02 0.18263705E+03</pdfrwt>
<pdfrwt beam="2">  1       21 0.34206068E+00 0.18263705E+03</pdfrwt>
<totfact> 0.15970936E+04</totfact>
</mgrwt>
</event>
<event>
 4    1  0.4263413E+000  0.1886498E+03  0.7546771E-02  0.1159685E+00
         21   -1    0    0  501  502  0.00000000000E+00  0.00000000000E+00  0.26693803308E+03  0.26693803308E+03  0.00000000000E+00 0.  1.
         21   -1    0    0  502  503 -0.00000000000E+00 -0.00000000000E+00 -0.13905029112E+03  0.13905029112E+03  0.00000000000E+00 0.  1.
          6    1    1    2  501    0  0.64927973863E+02 -0.38001343386E+02  0.22743068735E+02  0.19001576531E+03  0.17300000000E+03 0.  1.
         -6    1    1    2    0  503 -0.64927973863E+02  0.38001343386E+02  0.10514467322E+03  0.21597255890E+03  0.17300000000E+03 0.  1.
<mgrwt>
<rscale>  2 0.18864979E+03</rscale>
<asrwt>0</asrwt>
<pdfrwt beam="1">  1       21 0.41067390E-01 0.18864979E+03</pdfrwt>
<pdfrwt beam="2">  1       21 0.21392352E-01 0.18864979E+03</pdfrwt>
<totfact> 0.11637181E+05</totfact>
</mgrwt>
</event>
<event>
 4    1  0.4263413E+000  0.1902673E+03  0.7546771E-02  0.1158220E+00
         21   -1    0    0  503  502  0.00000000000E+00  0.00000000000E+00  0.10121394655E+04  0.10121394655E+04  0.00000000000E+00 0.  1.
         21   -1    0    0  501  503 -0.00000000000E+00 -0.00000000000E+00 -0.36465195343E+02  0.36465195343E+02  0.00000000000E+00 0. -1.
          6    1    1    2  501    0 -0.58275389678E+02  0.53634083390E+02  0.41531098710E+03  0.45682037165E+03  0.17300000000E+03 0.  1.
         -6    1    1    2    0  502  0.58275389678E+02 -0.53634083390E+02  0.56036328304E+03  0.59178428918E+03  0.17300000000E+03 0. -1.
<mgrwt>
<rscale>  2 0.19026728E+03</rscale>
<asrwt>0</asrwt>
<pdfrwt beam="1">  1       21 0.15571374E+00 0.19026728E+03</pdfrwt>
<pdfrwt beam="2">  1       21 0.56100308E-02 0.19026728E+03</pdfrwt>
<totfact> 0.59956909E+04</totfact>
</mgrwt>
</event>
<event>
 4    1  0.4263413E+000  0.2257984E+03  0.7546771E-02  0.1129632E+00
         21   -1    0    0  503  502  0.00000000000E+00  0.00000000000E+00  0.69023623293E+03  0.69023623293E+03  0.00000000000E+00 0.  1.
         21   -1    0    0  501  503 -0.00000000000E+00 -0.00000000000E+00 -0.14500475345E+03  0.14500475345E+03  0.00000000000E+00 0.  1.
          6    1    1    2  501    0 -0.74548421583E+02 -0.12449285672E+03 -0.19896493465E+02  0.22667335306E+03  0.17300000000E+03 0.  1.
         -6    1    1    2    0  502  0.74548421583E+02  0.12449285672E+03  0.56512797294E+03  0.60856763332E+03  0.17300000000E+03 0.  1.
<mgrwt>
<rscale>  2 0.22579845E+03</rscale>
<asrwt>0</asrwt>
<pdfrwt beam="1">  1       21 0.10619019E+00 0.22579845E+03</pdfrwt>
<pdfrwt beam="2">  1       21 0.22308424E-01 0.22579845E+03</pdfrwt>
<totfact> 0.13086328E+04</totfact>
</mgrwt>
</event>
<event>
 4    1  0.4263413E+000  0.2087233E+03  0.7546771E-02  0.1142581E+00
         21   -1    0    0  503  502  0.00000000000E+00  0.00000000000E+00  0.53065505201E+02  0.53065505201E+02  0.00000000000E+00 0.  1.
         21   -1    0    0  501  503 -0.00000000000E+00 -0.00000000000E+00 -0.99808372316E+03  0.99808372316E+03  0.00000000000E+00 0. -1.
          6    1    1    2  501    0 -0.85119399546E+02 -0.79944417825E+02 -0.69390603476E+03  0.72461783527E+03  0.17300000000E+03 0. -1.
         -6    1    1    2    0  502  0.85119399546E+02  0.79944417825E+02 -0.25111218320E+03  0.32653139309E+03  0.17300000000E+03 0.  1.
<mgrwt>
<rscale>  2 0.20872331E+03</rscale>
<asrwt>0</asrwt>
<pdfrwt beam="1">  1       21 0.81639244E-02 0.20872331E+03</pdfrwt>
<pdfrwt beam="2">  1       21 0.15355133E+00 0.20872331E+03</pdfrwt>
<totfact> 0.32227326E+04</totfact>
</mgrwt>
</event>
<event>
 4    1  0.4263413E+000  0.1798680E+03  0.7546771E-02  0.1167931E+00
         21   -1    0    0  501  502  0.00000000000E+00  0.00000000000E+00  0.21521689725E+03  0.21521689725E+03  0.00000000000E+00 0. -1.
         21   -1    0    0  502  503 -0.00000000000E+00 -0.00000000000E+00 -0.15327828678E+03  0.15327828678E+03  0.00000000000E+00 0. -1.
          6    1    1    2  501    0 -0.31326584079E+02  0.37975427773E+02  0.56544067861E+02  0.18854633275E+03  0.17300000000E+03 0.  1.
         -6    1    1    2    0  503  0.31326584079E+02 -0.37975427773E+02  0.53945426096E+01  0.17994885127E+03  0.17300000000E+03 0.  1.
<mgrwt>
<rscale>  2 0.17986797E+03</rscale>
<asrwt>0</asrwt>
<pdfrwt beam="1">  1       21 0.33110292E-01 0.17986797E+03</pdfrwt>
<pdfrwt beam="2">  1       21 0.23581275E-01 0.17986797E+03</pdfrwt>
<totfact> 0.14928825E+05</totfact>
</mgrwt>
</event>
<event>
 4    1  0.4263413E+000  0.2009178E+03  0.7546771E-02  0.1148967E+00
         21   -1    0    0  503  502  0.00000000000E+00  0.00000000000E+00  0.94621473452E+03  0.94621473452E+03  0.00000000000E+00 0.  1.
         21   -1    0    0  501  503 -0.00000000000E+00 -0.00000000000E+00 -0.84151485079E+02  0.84151485079E+02  0.00000000000E+00 0.  1.
          6    1    1    2  501    0  0.12009464236E+02 -0.10146301335E+03  0.69291516835E+02  0.21253066747E+03  0.17300000000E+03 0.  1.
         -6    1    1    2    0  502 -0.12009464236E+02  0.10146301335E+03  0.79277173261E+03  0.81783555213E+03  0.17300000000E+03 0.  1.
<mgrwt>
<rscale>  2 0.20091782E+03</rscale>
<asrwt>0</asrwt>
<pdfrwt beam="1">  1       21 0.14557149E+00 0.20091782E+03</pdfrwt>
<pdfrwt beam="2">  1       21 0.12946383E-01 0.20091782E+03</pdfrwt>
<totfact> 0.16463505E+04</totfact>
</mgrwt>
</event>
<event>
 4    1  0.4263413E+000  0.1933536E+03  0.7546771E-02  0.1155471E+00
         21   -1    0    0  503  502  0.00000000000E+00  0.00000000000E+00  0.35397882355E+02  0.35397882355E+02  0.00000000000E+00 0.  1.
         21   -1    0    0  501  503 -0.00000000000E+00 -0.00000000000E+00 -0.12210219985E+04  0.12210219985E+04  0.00000000000E+00 0.  1.
          6    1    1    2  501    0  0.84292574168E+02 -0.18744771191E+02 -0.82365236051E+03  0.84604303405E+03  0.17300000000E+03 0.  1.
         -6    1    1    2    0  502 -0.84292574168E+02  0.18744771191E+02 -0.36197175562E+03  0.41037684678E+03  0.17300000000E+03 0.  1.
<mgrwt>
<rscale>  2 0.19335357E+03</rscale>
<asrwt>0</asrwt>
<pdfrwt beam="1">  1       21 0.54458283E-02 0.19335357E+03</pdfrwt>
<pdfrwt beam="2">  1       21 0.18784953E+00 0.19335357E+03</pdfrwt>
<totfact> 0.37477911E+04</totfact>
</mgrwt>
</event>
<event>
 4    1  0.4263413E+000  0.1752632E+03  0.7546771E-02  0.1172468E+00
         21   -1    0    0  501  502  0.00000000000E+00  0.00000000000E+00  0.20356375084E+03  0.20356375084E+03  0.00000000000E+00 0.  1.
         21   -1    0    0  502  503 -0.00000000000E+00 -0.00000000000E+00 -0.21715470082E+03  0.21715470082E+03  0.00000000000E+00 0.  1.
          6    1    1    2  501    0  0.13398737373E+02  0.24671124598E+02  0.10940144705E+03  0.20660558358E+03  0.17300000000E+03 0.  1.
         -6    1    1    2    0  503 -0.13398737373E+02 -0.24671124598E+02 -0.12299239703E+03  0.21411286808E+03  0.17300000000E+03 0.  1.
<mgrwt>
<rscale>  2 0.17526320E+03</rscale>
<asrwt>0</asrwt>
<pdfrwt beam="1">  1       21 0.31317500E-01 0.17526320E+03</pdfrwt>
<pdfrwt beam="2">  1       21 0.33408416E-01 0.17526320E+03</pdfrwt>
<totfact> 0.85134815E+04</totfact>
</mgrwt>
</event>
<event>
 4    1  0.4263413E+000  0.2304492E+03  0.7546771E-02  0.1126324E+00
         21   -1    0    0  501  502  0.00000000000E+00  0.00000000000E+00  0.21924479366E+03  0.21924479366E+03  0.00000000000E+00 0. -1.
         21   -1    0    0  502  503 -0.00000000000E+00 -0.00000000000E+00 -0.37535164987E+03  0.37535164987E+03  0.00000000000E+00 0. -1.
          6    1    1    2  501    0  0.98153947769E+02  0.11637705827E+03  0.98999784285E+02  0.25081422297E+03  0.17300000000E+03 0. -1.
         -6    1    1    2    0  503 -0.98153947769E+02 -0.11637705827E+03 -0.25510664049E+03  0.34378222057E+03  0.17300000000E+03 0. -1.
<mgrwt>
<rscale>  2 0.23044916E+03</rscale>
<asrwt>0</asrwt>
<pdfrwt beam="1">  1       21 0.33729969E-01 0.23044916E+03</pdfrwt>
<pdfrwt beam="2">  1       21 0.57746407E-01 0.23044916E+03</pdfrwt>
<totfact> 0.23320890E+04</totfact>
</mgrwt>
</event>
<event>
 4    1  0.4263413E+000  0.1918183E+03  0.7546771E-02  0.1156832E+00
         21   -1    0    0  503  502  0.00000000000E+00  0.00000000000E+00  0.15544458179E+03  0.15544458179E+03  0.00000000000E+00 0.  1.
         21   -1    0    0  501  503 -0.00000000000E+00 -0.00000000000E+00 -0.45422980521E+03  0.45422980521E+03  0.00000000000E+00 0.  1.
          6    1    1    2  501    0 -0.82688155907E+02 -0.52845369171E+01 -0.36034582982E+03  0.40821976254E+03  0.17300000000E+03 0.  1.
         -6    1    1    2    0  502  0.82688155907E+02  0.52845369171E+01  0.61560606403E+02  0.20145462447E+03  0.17300000000E+03 0.  1.
<mgrwt>
<rscale>  2 0.19181829E+03</rscale>
<asrwt>0</asrwt>
<pdfrwt beam="1">  1       21 0.23914551E-01 0.19181829E+03</pdfrwt>
<pdfrwt beam="2">  1       21 0.69881508E-01 0.19181829E+03</pdfrwt>
<totfact> 0.30671350E+04</totfact>
</mgrwt>
</event>
<event>
 4    1  0.4263413E+000  0.2274821E+03  0.7546771E-02  0.1128425E+00
         21   -1    0    0  503  502  0.00000000000E+00  0.00000000000E+00  0.30180577732E+03  0.30180577732E+03  0.00000000000E+00 0.  1.
         21   -1    0    0  501  503 -0.00000000000E+00 -0.00000000000E+00 -0.22347222705E+03  0.22347222705E+03  0.00000000000E+00 0. -1.
          6    1    1    2  501    0  0.12537846123E+03 -0.78098325557E+02 -0.87538124624E+02  0.24374377994E+03  0.17300000000E+03 0. -1.
         -6    1    1    2    0  502 -0.12537846123E+03  0.78098325557E+02  0.16587167490E+03  0.28153422444E+03  0.17300000000E+03 0.  1.
<mgrwt>
<rscale>  2 0.22748210E+03</rscale>
<asrwt>0</asrwt>
<pdfrwt beam="1">  1       21 0.46431658E-01 0.22748210E+03</pdfrwt>
<pdfrwt beam="2">  1       21 0.34380343E-01 0.22748210E+03</pdfrwt>
<totfact> 0.35590443E+04</totfact>
</mgrwt>
</event>
<event>
 4    1  0.4263413E+000  0.2377783E+03  0.7546771E-02  0.1121282E+00
         21   -1    0    0  503  502  0.00000000000E+00  0.00000000000E+00  0.31150802280E+02  0.31150802280E+02  0.00000000000E+00 0.  1.
         21   -1    0    0  501  503 -0.00000000000E+00 -0.00000000000E+00 -0.18281346147E+04  0.18281346147E+04  0.00000000000E+00 0. -1.
          6    1    1    2  501    0 -0.15486874867E+03 -0.51236744136E+02 -0.97730754103E+03  0.10058173607E+04  0.17300000000E+03 0. -1.
         -6    1    1    2    0  502  0.15486874867E+03  0.51236744136E+02 -0.81967627137E+03  0.85346805629E+03  0.17300000000E+03 0.  1.
<mgrwt>
<rscale>  2 0.23777833E+03</rscale>
<asrwt>0</asrwt>
<pdfrwt beam="1">  1       21 0.47924296E-02 0.23777833E+03</pdfrwt>
<pdfrwt beam="2">  1       21 0.28125157E+00 0.23777833E+03</pdfrwt>
<totfact> 0.12132897E+04</totfact>
</mgrwt>
</event>
<event>
 4    1  0.4263413E+000  0.4889522E+03  0.7546771E-02  0.1016703E+00
         21   -1    0    0  503  502  0.00000000000E+00  0.00000000000E+00  0.21740665872E+04  0.21740665872E+04  0.00000000000E+00 0.  1.
         21   -1    0    0  501  503 -0.00000000000E+00 -0.00000000000E+00 -0.15478991723E+03  0.15478991723E+03  0.00000000000E+00 0. -1.
          6    1    1    2  501    0 -0.34070430358E+02  0.45605311843E+03  0.38303248694E+03  0.62111844853E+03  0.17300000000E+03 0. -1.
         -6    1    1    2    0  502  0.34070430358E+02 -0.45605311843E+03  0.16362441831E+04  0.17077380559E+04  0.17300000000E+03 0.  1.
<mgrwt>
<rscale>  2 0.48895219E+03</rscale>
<asrwt>0</asrwt>
<pdfrwt beam="1">  1       21 0.33447176E+00 0.48895219E+03</pdfrwt>
<pdfrwt beam="2">  1       21 0.23813835E-01 0.48895219E+03</pdfrwt>
<totfact> 0.27302810E+02</totfact>
</mgrwt>
</event>
<event>
 4    1  0.4263413E+000  0.2202405E+03  0.7546771E-02  0.1133704E+00
         21   -1    0    0  503  502  0.00000000000E+00  0.00000000000E+00  0.81078255030E+02  0.81078255030E+02  0.00000000000E+00 0.  1.
         21   -1    0    0  501  503 -0.00000000000E+00 -0.00000000000E+00 -0.70777395024E+03  0.70777395024E+03  0.00000000000E+00 0.  1.
          6    1    1    2  501    0 -0.13554257469E+03 -0.14320726230E+02 -0.46849834910E+03  0.51768385707E+03  0.17300000000E+03 0.  1.
         -6    1    1    2    0  502  0.13554257469E+03  0.14320726230E+02 -0.15819734611E+03  0.27116834821E+03  0.17300000000E+03 0.  1.
<mgrwt>
<rscale>  2 0.22024049E+03</rscale>
<asrwt>0</asrwt>
<pdfrwt beam="1">  1       21 0.12473578E-01 0.22024049E+03</pdfrwt>
<pdfrwt beam="2">  1       21 0.10888830E+00 0.22024049E+03</pdfrwt>
<totfact> 0.36103016E+04</totfact>
</mgrwt>
</event>
<event>
 4    1  0.4263413E+000  0.2255070E+03  0.7546771E-02  0.1129843E+00
         21   -1    0    0  503  502  0.00000000000E+00  0.00000000000E+00  0.12245928600E+04  0.12245928600E+04  0.00000000000E+00 0. -1.
         21   -1    0    0  501  503 -0.00000000000E+00 -0.00000000000E+00 -0.42575028555E+02  0.42575028555E+02  0.00000000000E+00 0. -1.
          6    1    1    2  501    0 -0.75498455618E+02 -0.12338718161E+03  0.49159291905E+03  0.54084841818E+03  0.17300000000E+03 0. -1.
         -6    1    1    2    0  502  0.75498455618E+02  0.12338718161E+03  0.69042491235E+03  0.72631947033E+03  0.17300000000E+03 0. -1.
<mgrwt>
<rscale>  2 0.22550701E+03</rscale>
<asrwt>0</asrwt>
<pdfrwt beam="1">  1       21 0.18839887E+00 0.22550701E+03</pdfrwt>
<pdfrwt beam="2">  1       21 0.65500053E-02 0.22550701E+03</pdfrwt>
<totfact> 0.26514002E+04</totfact>
</mgrwt>
</event>
<event>
 4    1  0.4263413E+000  0.4948496E+03  0.7546771E-02  0.1015132E+00
         21   -1    0    0  503  502  0.00000000000E+00  0.00000000000E+00  0.13382286568E+04  0.13382286568E+04  0.00000000000E+00 0.  1.
         21   -1    0    0  501  503 -0.00000000000E+00 -0.00000000000E+00 -0.26036533523E+03  0.26036533523E+03  0.00000000000E+00 0. -1.
          6    1    1    2  501    0 -0.33683272775E+03 -0.31857626269E+03  0.10318791007E+03  0.50549368584E+03  0.17300000000E+03 0. -1.
         -6    1    1    2    0  502  0.33683272775E+03  0.31857626269E+03  0.97467541152E+03  0.10931003062E+04  0.17300000000E+03 0.  1.
<mgrwt>
<rscale>  2 0.49484959E+03</rscale>
<asrwt>0</asrwt>
<pdfrwt beam="1">  1       21 0.20588133E+00 0.49484959E+03</pdfrwt>
<pdfrwt beam="2">  1       21 0.40056206E-01 0.49484959E+03</pdfrwt>
<totfact> 0.59785333E+02</totfact>
</mgrwt>
</event>
<event>
 4    1  0.4263413E+000  0.2040011E+03  0.7546771E-02  0.1146406E+00
         21   -1    0    0  501  502  0.00000000000E+00  0.00000000000E+00  0.10127935646E+04  0.10127935646E+04  0.00000000000E+00 0.  1.
         21   -1    0    0  502  503 -0.00000000000E+00 -0.00000000000E+00 -0.42463940308E+02  0.42463940308E+02  0.00000000000E+00 0.  1.
          6    1    1    2  501    0  0.74721554832E+02 -0.78129034826E+02  0.58004644784E+03  0.61487424608E+03  0.17300000000E+03 0.  1.
         -6    1    1    2    0  503 -0.74721554832E+02  0.78129034826E+02  0.39028317648E+03  0.44038325886E+03  0.17300000000E+03 0.  1.
<mgrwt>
<rscale>  2 0.20400112E+03</rscale>
<asrwt>0</asrwt>
<pdfrwt beam="1">  1       21 0.15581438E+00 0.20400112E+03</pdfrwt>
<pdfrwt beam="2">  1       21 0.65329146E-02 0.20400112E+03</pdfrwt>
<totfact> 0.45745002E+04</totfact>
</mgrwt>
</event>
<event>
 4    1  0.4263413E+000  0.1734763E+03  0.7546771E-02  0.1174270E+00
         21   -1    0    0  501  502  0.00000000000E+00  0.00000000000E+00  0.54490718514E+03  0.54490718514E+03  0.00000000000E+00 0. -1.
         21   -1    0    0  502  503 -0.00000000000E+00 -0.00000000000E+00 -0.12668534233E+03  0.12668534233E+03  0.00000000000E+00 0. -1.
          6    1    1    2  501    0  0.12338306103E+02 -0.35751610568E+01  0.46130609174E+03  0.49284614826E+03  0.17300000000E+03 0. -1.
         -6    1    1    2    0  503 -0.12338306103E+02  0.35751610568E+01 -0.43084248933E+02  0.17874637921E+03  0.17300000000E+03 0. -1.
<mgrwt>
<rscale>  2 0.17347627E+03</rscale>
<asrwt>0</asrwt>
<pdfrwt beam="1">  1       21 0.83831873E-01 0.17347627E+03</pdfrwt>
<pdfrwt beam="2">  1       21 0.19490053E-01 0.17347627E+03</pdfrwt>
<totfact> 0.30280782E+04</totfact>
</mgrwt>
</event>
<event>
 4    1  0.4263413E+000  0.2005570E+03  0.7546771E-02  0.1149270E+00
         21   -1    0    0  503  502  0.00000000000E+00  0.00000000000E+00  0.29964470645E+03  0.29964470645E+03  0.00000000000E+00 0.  1.
         21   -1    0    0  501  503 -0.00000000000E+00 -0.00000000000E+00 -0.20775939938E+03  0.20775939938E+03  0.00000000000E+00 0.  1.
          6    1    1    2  501    0 -0.73164296451E+02 -0.70292875815E+02 -0.10498070848E+03  0.22637149074E+03  0.17300000000E+03 0.  1.
         -6    1    1    2    0  502  0.73164296451E+02  0.70292875815E+02  0.19686601555E+03  0.28103261509E+03  0.17300000000E+03 0.  1.
<mgrwt>
<rscale>  2 0.20055698E+03</rscale>
<asrwt>0</asrwt>
<pdfrwt beam="1">  1       21 0.46099185E-01 0.20055698E+03</pdfrwt>
<pdfrwt beam="2">  1       21 0.31962985E-01 0.20055698E+03</pdfrwt>
<totfact> 0.42277061E+04</totfact>
</mgrwt>
</event>
<event>
 4    1  0.4263413E+000  0.2362521E+03  0.7546771E-02  0.1122315E+00
         21   -1    0    0  501  502  0.00000000000E+00  0.00000000000E+00  0.92714011828E+03  0.92714011828E+03  0.00000000000E+00 0. -1.
         21   -1    0    0  502  503 -0.00000000000E+00 -0.00000000000E+00 -0.10713152392E+03  0.10713152392E+03  0.00000000000E+00 0. -1.
          6    1    1    2  501    0  0.13310532725E+03  0.90382613860E+02  0.67731589601E+02  0.24576943110E+03  0.17300000000E+03 0. -1.
         -6    1    1    2    0  503 -0.13310532725E+03 -0.90382613860E+02  0.75227700475E+03  0.78850221110E+03  0.17300000000E+03 0. -1.
<mgrwt>
<rscale>  2 0.23625208E+03</rscale>
<asrwt>0</asrwt>
<pdfrwt beam="1">  1       21 0.14263694E+00 0.23625208E+03</pdfrwt>
<pdfrwt beam="2">  1       21 0.16481774E-01 0.23625208E+03</pdfrwt>
<totfact> 0.10926431E+04</totfact>
</mgrwt>
</event>
<event>
 4    1  0.4263413E+000  0.2564716E+03  0.7546771E-02  0.1109282E+00
         21   -1    0    0  503  502  0.00000000000E+00  0.00000000000E+00  0.19200595900E+03  0.19200595900E+03  0.00000000000E+00 0. -1.
         21   -1    0    0  501  503 -0.00000000000E+00 -0.00000000000E+00 -0.46669914488E+03  0.46669914488E+03  0.00000000000E+00 0.  1.
          6    1    1    2  501    0 -0.47990337952E+02 -0.18315464877E+03 -0.30719411544E+03  0.40018236151E+03  0.17300000000E+03 0.  1.
         -6    1    1    2    0  502  0.47990337952E+02  0.18315464877E+03  0.32500929560E+02  0.25852274237E+03  0.17300000000E+03 0. -1.
<mgrwt>
<rscale>  2 0.25647163E+03</rscale>
<asrwt>0</asrwt>
<pdfrwt beam="1">  1       21 0.29539379E-01 0.25647163E+03</pdfrwt>
<pdfrwt beam="2">  1       21 0.71799867E-01 0.25647163E+03</pdfrwt>
<totfact> 0.18575483E+04</totfact>
</mgrwt>
</event>
<event>
 4    1  0.4263413E+000  0.1927978E+03  0.7546771E-02  0.1155962E+00
         21   -1    0    0  501  502  0.00000000000E+00  0.00000000000E+00  0.20087623973E+03  0.20087623973E+03  0.00000000000E+00 0.  1.
         21   -1    0    0  502  503 -0.00000000000E+00 -0.00000000000E+00 -0.25736315014E+03  0.25736315014E+03  0.00000000000E+00 0. -1.
          6    1    1    2  501    0  0.46993761121E+02  0.70947820317E+02  0.93211417320E+02  0.21414802150E+03  0.17300000000E+03 0. -1.
         -6    1    1    2    0  503 -0.46993761121E+02 -0.70947820317E+02 -0.14969832773E+03  0.24409136838E+03  0.17300000000E+03 0. -1.
<mgrwt>
<rscale>  2 0.19279784E+03</rscale>
<asrwt>0</asrwt>
<pdfrwt beam="1">  1       21 0.30904037E-01 0.19279784E+03</pdfrwt>
<pdfrwt beam="2">  1       21 0.39594331E-01 0.19279784E+03</pdfrwt>
<totfact> 0.61833137E+04</totfact>
</mgrwt>
</event>
<event>
 4    1  0.4263413E+000  0.1757295E+03  0.7546771E-02  0.1172001E+00
         21   -1    0    0  503  502  0.00000000000E+00  0.00000000000E+00  0.69127897070E+02  0.69127897070E+02  0.00000000000E+00 0.  1.
         21   -1    0    0  501  503 -0.00000000000E+00 -0.00000000000E+00 -0.20398037934E+04  0.20398037934E+04  0.00000000000E+00 0.  1.
          6    1    1    2  501    0  0.36839059728E+01  0.30631236472E+02 -0.19172127555E+04  0.19252494887E+04  0.17300000000E+03 0.  1.
         -6    1    1    2    0  502 -0.36839059728E+01 -0.30631236472E+02 -0.53463140769E+02  0.18368220173E+03  0.17300000000E+03 0.  1.
<mgrwt>
<rscale>  2 0.17572946E+03</rscale>
<asrwt>0</asrwt>
<pdfrwt beam="1">  1       21 0.10635061E-01 0.17572946E+03</pdfrwt>
<pdfrwt beam="2">  1       21 0.31381596E+00 0.17572946E+03</pdfrwt>
<totfact> 0.21157876E+03</totfact>
</mgrwt>
</event>
<event>
 4    1  0.4263413E+000  0.2694720E+03  0.7546771E-02  0.1101582E+00
         21   -1    0    0  503  502  0.00000000000E+00  0.00000000000E+00  0.23034291459E+03  0.23034291459E+03  0.00000000000E+00 0. -1.
         21   -1    0    0  501  503 -0.00000000000E+00 -0.00000000000E+00 -0.32868376393E+03  0.32868376393E+03  0.00000000000E+00 0. -1.
          6    1    1    2  501    0  0.10348387408E+03 -0.17882183513E+03 -0.10568277213E+03  0.28945467562E+03  0.17300000000E+03 0. -1.
         -6    1    1    2    0  502 -0.10348387408E+03  0.17882183513E+03  0.73419227945E+01  0.26957200290E+03  0.17300000000E+03 0. -1.
<mgrwt>
<rscale>  2 0.26947200E+03</rscale>
<asrwt>0</asrwt>
<pdfrwt beam="1">  1       21 0.35437372E-01 0.26947200E+03</pdfrwt>
<pdfrwt beam="2">  1       21 0.50566732E-01 0.26947200E+03</pdfrwt>
<totfact> 0.27519956E+04</totfact>
</mgrwt>
</event>
<event>
 4    1  0.4263413E+000  0.2354202E+03  0.7546771E-02  0.1122882E+00
         21   -1    0    0  503  502  0.00000000000E+00  0.00000000000E+00  0.18547594247E+04  0.18547594247E+04  0.00000000000E+00 0.  1.
         21   -1    0    0  501  503 -0.00000000000E+00 -0.00000000000E+00 -0.86874569764E+02  0.86874569764E+02  0.00000000000E+00 0.  1.
          6    1    1    2  501    0 -0.15203376812E+03  0.48778927268E+02  0.97616188066E+02  0.25485598005E+03  0.17300000000E+03 0.  1.
         -6    1    1    2    0  502  0.15203376812E+03 -0.48778927268E+02  0.16702686668E+04  0.16867780144E+04  0.17300000000E+03 0.  1.
<mgrwt>
<rscale>  2 0.23542016E+03</rscale>
<asrwt>0</asrwt>
<pdfrwt beam="1">  1       21 0.28534757E+00 0.23542016E+03</pdfrwt>
<pdfrwt beam="2">  1       21 0.13365320E-01 0.23542016E+03</pdfrwt>
<totfact> 0.19094911E+03</totfact>
</mgrwt>
</event>
<event>
 4    1  0.4263413E+000  0.2375851E+03  0.7546771E-02  0.1121412E+00
         21   -1    0    0  503  502  0.00000000000E+00  0.00000000000E+00  0.10849937607E+04  0.10849937607E+04  0.00000000000E+00 0.  1.
         21   -1    0    0  501  503 -0.00000000000E+00 -0.00000000000E+00 -0.59376293075E+02  0.59376293075E+02  0.00000000000E+00 0.  1.
          6    1    1    2  501    0  0.12622696654E+03  0.10288069689E+03  0.31147573504E+03  0.39174458311E+03  0.17300000000E+03 0.  1.
         -6    1    1    2    0  502 -0.12622696654E+03 -0.10288069689E+03  0.71414173254E+03  0.75262547062E+03  0.17300000000E+03 0.  1.
<mgrwt>
<rscale>  2 0.23758511E+03</rscale>
<asrwt>0</asrwt>
<pdfrwt beam="1">  1       21 0.16692210E+00 0.23758511E+03</pdfrwt>
<pdfrwt beam="2">  1       21 0.91348151E-02 0.23758511E+03</pdfrwt>
<totfact> 0.20736842E+04</totfact>
</mgrwt>
</event>
<event>
 4    1  0.4263413E+000  0.2172189E+03  0.7546771E-02  0.1135974E+00
         21   -1    0    0  501  502  0.00000000000E+00  0.00000000000E+00  0.11588128771E+04  0.11588128771E+04  0.00000000000E+00 0.  1.
         21   -1    0    0  502  503 -0.00000000000E+00 -0.00000000000E+00 -0.46006569217E+02  0.46006569217E+02  0.00000000000E+00 0.  1.
          6    1    1    2  501    0  0.13118395057E+03  0.67678093295E+01  0.76065652646E+03  0.79106408298E+03  0.17300000000E+03 0.  1.
         -6    1    1    2    0  503 -0.13118395057E+03 -0.67678093295E+01  0.35214978139E+03  0.41375536330E+03  0.17300000000E+03 0.  1.
<mgrwt>
<rscale>  2 0.21721886E+03</rscale>
<asrwt>0</asrwt>
<pdfrwt beam="1">  1       21 0.17827888E+00 0.21721886E+03</pdfrwt>
<pdfrwt beam="2">  1       21 0.70779346E-02 0.21721886E+03</pdfrwt>
<totfact> 0.27293914E+04</totfact>
</mgrwt>
</event>
<event>
 4    1  0.4263413E+000  0.1817295E+03  0.7546771E-02  0.1166140E+00
         21   -1    0    0  501  502  0.00000000000E+00  0.00000000000E+00  0.22409761067E+03  0.22409761067E+03  0.00000000000E+00 0.  1.
         21   -1    0    0  502  503 -0.00000000000E+00 -0.00000000000E+00 -0.22376154194E+03  0.22376154194E+03  0.00000000000E+00 0.  1.
          6    1    1    2  501    0 -0.58462828508E+01 -0.55339199236E+02  0.13100698327E+03  0.22402775645E+03  0.17300000000E+03 0.  1.
         -6    1    1    2    0  503  0.58462828508E+01  0.55339199236E+02 -0.13067091454E+03  0.22383139615E+03  0.17300000000E+03 0.  1.
<mgrwt>
<rscale>  2 0.18172949E+03</rscale>
<asrwt>0</asrwt>
<pdfrwt beam="1">  1       21 0.34476555E-01 0.18172949E+03</pdfrwt>
<pdfrwt beam="2">  1       21 0.34424853E-01 0.18172949E+03</pdfrwt>
<totfact> 0.66247253E+04</totfact>
</mgrwt>
</event>
<event>
 4    1  0.4263413E+000  0.1919564E+03  0.7546771E-02  0.1156709E+00
         21   -1    0    0  501  502  0.00000000000E+00  0.00000000000E+00  0.16680321632E+03  0.16680321632E+03  0.00000000000E+00 0.  1.
         21   -1    0    0  502  503 -0.00000000000E+00 -0.00000000000E+00 -0.23903134132E+03  0.23903134132E+03  0.00000000000E+00 0. -1.
          6    1    1    2  501    0  0.30292222493E+02  0.77463781252E+02  0.19768460778E+02  0.19297162535E+03  0.17300000000E+03 0.  1.
         -6    1    1    2    0  503 -0.30292222493E+02 -0.77463781252E+02 -0.91996585778E+02  0.21286293229E+03  0.17300000000E+03 0. -1.
<mgrwt>
<rscale>  2 0.19195639E+03</rscale>
<asrwt>0</asrwt>
<pdfrwt beam="1">  1       21 0.25662033E-01 0.19195639E+03</pdfrwt>
<pdfrwt beam="2">  1       21 0.36774052E-01 0.19195639E+03</pdfrwt>
<totfact> 0.10278820E+05</totfact>
</mgrwt>
</event>
<event>
 4    1  0.4263413E+000  0.2813296E+03  0.7546771E-02  0.1094965E+00
         21   -1    0    0  501  502  0.00000000000E+00  0.00000000000E+00  0.40590298020E+03  0.40590298020E+03  0.00000000000E+00 0. -1.
         21   -1    0    0  502  503 -0.00000000000E+00 -0.00000000000E+00 -0.44879003903E+03  0.44879003903E+03  0.00000000000E+00 0. -1.
          6    1    1    2  501    0  0.22163953613E+03 -0.96573163294E+01  0.29992683139E+03  0.41122068519E+03  0.17300000000E+03 0. -1.
         -6    1    1    2    0  503 -0.22163953613E+03  0.96573163294E+01 -0.34281389022E+03  0.44347233404E+03  0.17300000000E+03 0. -1.
<mgrwt>
<rscale>  2 0.28132961E+03</rscale>
<asrwt>0</asrwt>
<pdfrwt beam="1">  1       21 0.62446612E-01 0.28132961E+03</pdfrwt>
<pdfrwt beam="2">  1       21 0.69044622E-01 0.28132961E+03</pdfrwt>
<totfact> 0.42768742E+03</totfact>
</mgrwt>
</event>
<event>
 4    1  0.4263413E+000  0.1869094E+03  0.7546771E-02  0.1161279E+00
         21   -1    0    0  501  502  0.00000000000E+00  0.00000000000E+00  0.17581396782E+03  0.17581396782E+03  0.00000000000E+00 0.  1.
         21   -1    0    0  502  503 -0.00000000000E+00 -0.00000000000E+00 -0.20034965714E+03  0.20034965714E+03  0.00000000000E+00 0.  1.
          6    1    1    2  501    0  0.15240754432E+02 -0.69092903907E+02  0.47730963350E+01  0.18697029821E+03  0.17300000000E+03 0.  1.
         -6    1    1    2    0  503 -0.15240754432E+02  0.69092903907E+02 -0.29308785657E+02  0.18919332674E+03  0.17300000000E+03 0.  1.
<mgrwt>
<rscale>  2 0.18690936E+03</rscale>
<asrwt>0</asrwt>
<pdfrwt beam="1">  1       21 0.27048303E-01 0.18690936E+03</pdfrwt>
<pdfrwt beam="2">  1       21 0.30823024E-01 0.18690936E+03</pdfrwt>
<totfact> 0.13190398E+05</totfact>
</mgrwt>
</event>
<event>
 4    1  0.4263413E+000  0.1971316E+03  0.7546771E-02  0.1152182E+00
         21   -1    0    0  501  502  0.00000000000E+00  0.00000000000E+00  0.86918040891E+03  0.86918040891E+03  0.00000000000E+00 0.  1.
         21   -1    0    0  502  503 -0.00000000000E+00 -0.00000000000E+00 -0.60833284416E+02  0.60833284416E+02  0.00000000000E+00 0. -1.
          6    1    1    2  501    0  0.84336643208E+02 -0.42652261630E+02  0.64357024396E+03  0.67308509397E+03  0.17300000000E+03 0.  1.
         -6    1    1    2    0  503 -0.84336643208E+02  0.42652261630E+02  0.16477688053E+03  0.25692859936E+03  0.17300000000E+03 0. -1.
<mgrwt>
<rscale>  2 0.19713164E+03</rscale>
<asrwt>0</asrwt>
<pdfrwt beam="1">  1       21 0.13372005E+00 0.19713164E+03</pdfrwt>
<pdfrwt beam="2">  1       21 0.93589675E-02 0.19713164E+03</pdfrwt>
<totfact> 0.36607832E+04</totfact>
</mgrwt>
</event>
<event>
 4    1  0.4263413E+000  0.1765410E+03  0.7546771E-02  0.1171193E+00
         21   -1    0    0  503  502  0.00000000000E+00  0.00000000000E+00  0.10509189729E+03  0.10509189729E+03  0.00000000000E+00 0.  1.
         21   -1    0    0  501  503 -0.00000000000E+00 -0.00000000000E+00 -0.10698515270E+04  0.10698515270E+04  0.00000000000E+00 0.  1.
          6    1    1    2  501    0 -0.25211563327E+02 -0.24537453514E+02 -0.98183333170E+03  0.99757876922E+03  0.17300000000E+03 0.  1.
         -6    1    1    2    0  502  0.25211563327E+02  0.24537453514E+02  0.17073702039E+02  0.17736465502E+03  0.17300000000E+03 0.  1.
<mgrwt>
<rscale>  2 0.17654096E+03</rscale>
<asrwt>0</asrwt>
<pdfrwt beam="1">  1       21 0.16167984E-01 0.17654096E+03</pdfrwt>
<pdfrwt beam="2">  1       21 0.16459254E+00 0.17654096E+03</pdfrwt>
<totfact> 0.80811735E+03</totfact>
</mgrwt>
</event>
<event>
 4    1  0.4263413E+000  0.1768972E+03  0.7546771E-02  0.1170840E+00
         21   -1    0    0  501  502  0.00000000000E+00  0.00000000000E+00  0.52590134545E+02  0.52590134545E+02  0.00000000000E+00 0. -1.
         21   -1    0    0  502  503 -0.00000000000E+00 -0.00000000000E+00 -0.93437170257E+03  0.93437170257E+03  0.00000000000E+00 0. -1.
          6    1    1    2  501    0  0.35108840063E+02 -0.11444372968E+02 -0.14349801707E+03  0.22778122229E+03  0.17300000000E+03 0. -1.
         -6    1    1    2    0  503 -0.35108840063E+02  0.11444372968E+02 -0.73828355095E+03  0.75918061483E+03  0.17300000000E+03 0. -1.
<mgrwt>
<rscale>  2 0.17689716E+03</rscale>
<asrwt>0</asrwt>
<pdfrwt beam="1">  1       21 0.80907899E-02 0.17689716E+03</pdfrwt>
<pdfrwt beam="2">  1       21 0.14374949E+00 0.17689716E+03</pdfrwt>
<totfact> 0.39679264E+04</totfact>
</mgrwt>
</event>
<event>
 4    1  0.4263413E+000  0.1856882E+03  0.7546771E-02  0.1162409E+00
         21   -1    0    0  501  502  0.00000000000E+00  0.00000000000E+00  0.36297200917E+02  0.36297200917E+02  0.00000000000E+00 0.  1.
         21   -1    0    0  502  503 -0.00000000000E+00 -0.00000000000E+00 -0.97796533923E+03  0.97796533923E+03  0.00000000000E+00 0.  1.
          6    1    1    2  501    0 -0.66742929564E+02  0.98235815098E+01 -0.38498353808E+03  0.42742536891E+03  0.17300000000E+03 0.  1.
         -6    1    1    2    0  503  0.66742929564E+02 -0.98235815098E+01 -0.55668460024E+03  0.58683717123E+03  0.17300000000E+03 0.  1.
<mgrwt>
<rscale>  2 0.18568824E+03</rscale>
<asrwt>0</asrwt>
<pdfrwt beam="1">  1       21 0.55841846E-02 0.18568824E+03</pdfrwt>
<pdfrwt beam="2">  1       21 0.15045621E+00 0.18568824E+03</pdfrwt>
<totfact> 0.66341353E+04</totfact>
</mgrwt>
</event>
<event>
 4    1  0.4263413E+000  0.1760607E+03  0.7546771E-02  0.1171671E+00
         21   -1    0    0  503  502  0.00000000000E+00  0.00000000000E+00  0.17600756327E+04  0.17600756327E+04  0.00000000000E+00 0.  1.
         21   -1    0    0  501  503 -0.00000000000E+00 -0.00000000000E+00 -0.17632248335E+02  0.17632248335E+02  0.00000000000E+00 0.  1.
          6    1    1    2  501    0 -0.17927774031E+01  0.32636582196E+02  0.84064278779E+03  0.85888163167E+03  0.17300000000E+03 0.  1.
         -6    1    1    2    0  502  0.17927774031E+01 -0.32636582196E+02  0.90180059654E+03  0.91882624934E+03  0.17300000000E+03 0.  1.
<mgrwt>
<rscale>  2 0.17606067E+03</rscale>
<asrwt>0</asrwt>
<pdfrwt beam="1">  1       21 0.27078073E+00 0.17606067E+03</pdfrwt>
<pdfrwt beam="2">  1       21 0.27126550E-02 0.17606067E+03</pdfrwt>
<totfact> 0.38142950E+04</totfact>
</mgrwt>
</event>
<event>
 4    1  0.4263413E+000  0.1855971E+03  0.7546771E-02  0.1162493E+00
         21   -1    0    0  501  502  0.00000000000E+00  0.00000000000E+00  0.69718851312E+02  0.69718851312E+02  0.00000000000E+00 0.  1.
         21   -1    0    0  502  503 -0.00000000000E+00 -0.00000000000E+00 -0.60881722946E+03  0.60881722946E+03  0.00000000000E+00 0.  1.
          6    1    1    2  501    0 -0.34137834733E+01  0.67124093867E+02 -0.12226290421E+03  0.22224876971E+03  0.17300000000E+03 0.  1.
         -6    1    1    2    0  503  0.34137834733E+01 -0.67124093867E+02 -0.41683547394E+03  0.45628731106E+03  0.17300000000E+03 0.  1.
<mgrwt>
<rscale>  2 0.18559714E+03</rscale>
<asrwt>0</asrwt>
<pdfrwt beam="1">  1       21 0.10725977E-01 0.18559714E+03</pdfrwt>
<pdfrwt beam="2">  1       21 0.93664191E-01 0.18559714E+03</pdfrwt>
<totfact> 0.68848438E+04</totfact>
</mgrwt>
</event>
<event>
 4    1  0.4263413E+000  0.2299847E+03  0.7546771E-02  0.1126651E+00
         21   -1    0    0  503  502  0.00000000000E+00  0.00000000000E+00  0.65027645256E+02  0.65027645256E+02  0.00000000000E+00 0. -1.
         21   -1    0    0  501  503 -0.00000000000E+00 -0.00000000000E+00 -0.10649132444E+04  0.10649132444E+04  0.00000000000E+00 0. -1.
          6    1    1    2  501    0  0.53351365611E+01 -0.15144465498E+03 -0.77451477406E+03  0.80793940518E+03  0.17300000000E+03 0. -1.
         -6    1    1    2    0  502 -0.53351365611E+01  0.15144465498E+03 -0.22537082507E+03  0.32200148447E+03  0.17300000000E+03 0. -1.
<mgrwt>
<rscale>  2 0.22998467E+03</rscale>
<asrwt>0</asrwt>
<pdfrwt beam="1">  1       21 0.10004252E-01 0.22998467E+03</pdfrwt>
<pdfrwt beam="2">  1       21 0.16383282E+00 0.22998467E+03</pdfrwt>
<totfact> 0.18670581E+04</totfact>
</mgrwt>
</event>
<event>
 4    1  0.4263413E+000  0.2355456E+03  0.7546771E-02  0.1122796E+00
         21   -1    0    0  503  502  0.00000000000E+00  0.00000000000E+00  0.13330583817E+03  0.13330583817E+03  0.00000000000E+00 0. -1.
         21   -1    0    0  501  503 -0.00000000000E+00 -0.00000000000E+00 -0.41643457678E+03  0.41643457678E+03  0.00000000000E+00 0. -1.
          6    1    1    2  501    0 -0.55524771940E+02  0.14989902558E+03 -0.14810599497E+03  0.27823929254E+03  0.17300000000E+03 0. -1.
         -6    1    1    2    0  502  0.55524771940E+02 -0.14989902558E+03 -0.13502274365E+03  0.27150112241E+03  0.17300000000E+03 0. -1.
<mgrwt>
<rscale>  2 0.23554558E+03</rscale>
<asrwt>0</asrwt>
<pdfrwt beam="1">  1       21 0.20508590E-01 0.23554558E+03</pdfrwt>
<pdfrwt beam="2">  1       21 0.64066858E-01 0.23554558E+03</pdfrwt>
<totfact> 0.48553485E+04</totfact>
</mgrwt>
</event>
<event>
 4    1  0.4263413E+000  0.1853460E+03  0.7546771E-02  0.1162727E+00
         21   -1    0    0  501  502  0.00000000000E+00  0.00000000000E+00  0.10881265581E+04  0.10881265581E+04  0.00000000000E+00 0.  1.
         21   -1    0    0  502  503 -0.00000000000E+00 -0.00000000000E+00 -0.55747833428E+02  0.55747833428E+02  0.00000000000E+00 0.  1.
          6    1    1    2  501    0 -0.66281811242E+02  0.55557232526E+01  0.89283667325E+03  0.91187195903E+03  0.17300000000E+03 0.  1.
         -6    1    1    2    0  503  0.66281811242E+02 -0.55557232526E+01  0.13954205138E+03  0.23200243246E+03  0.17300000000E+03 0.  1.
<mgrwt>
<rscale>  2 0.18534601E+03</rscale>
<asrwt>0</asrwt>
<pdfrwt beam="1">  1       21 0.16740407E+00 0.18534601E+03</pdfrwt>
<pdfrwt beam="2">  1       21 0.85765906E-02 0.18534601E+03</pdfrwt>
<totfact> 0.23774576E+04</totfact>
</mgrwt>
</event>
<event>
 4    1  0.4263413E+000  0.2126106E+03  0.7546771E-02  0.1139515E+00
         21   -1    0    0  501  502  0.00000000000E+00  0.00000000000E+00  0.60821220129E+02  0.60821220129E+02  0.00000000000E+00 0. -1.
         21   -1    0    0  502  503 -0.00000000000E+00 -0.00000000000E+00 -0.11702720124E+04  0.11702720124E+04  0.00000000000E+00 0.  1.
          6    1    1    2  501    0  0.58846948996E+01  0.12344890057E+03 -0.18288178779E+03  0.28044430640E+03  0.17300000000E+03 0. -1.
         -6    1    1    2    0  503 -0.58846948996E+01 -0.12344890057E+03 -0.92656900449E+03  0.95064892614E+03  0.17300000000E+03 0. -1.
<mgrwt>
<rscale>  2 0.21261058E+03</rscale>
<asrwt>0</asrwt>
<pdfrwt beam="1">  1       21 0.93571110E-02 0.21261058E+03</pdfrwt>
<pdfrwt beam="2">  1       21 0.18004184E+00 0.21261058E+03</pdfrwt>
<totfact> 0.16348916E+04</totfact>
</mgrwt>
</event>
<event>
 4    1  0.4263413E+000  0.2179591E+03  0.7546771E-02  0.1135414E+00
         21   -1    0    0  503  502  0.00000000000E+00  0.00000000000E+00  0.13068309763E+03  0.13068309763E+03  0.00000000000E+00 0.  1.
         21   -1    0    0  501  503 -0.00000000000E+00 -0.00000000000E+00 -0.89042641785E+03  0.89042641785E+03  0.00000000000E+00 0.  1.
          6    1    1    2  501    0  0.62359646577E+02 -0.11699753408E+03 -0.77261545475E+03  0.80277069541E+03  0.17300000000E+03 0.  1.
         -6    1    1    2    0  502 -0.62359646577E+02  0.11699753408E+03  0.12872134527E+02  0.21833882007E+03  0.17300000000E+03 0.  1.
<mgrwt>
<rscale>  2 0.21795905E+03</rscale>
<asrwt>0</asrwt>
<pdfrwt beam="1">  1       21 0.20105092E-01 0.21795905E+03</pdfrwt>
<pdfrwt beam="2">  1       21 0.13698868E+00 0.21795905E+03</pdfrwt>
<totfact> 0.84909164E+03</totfact>
</mgrwt>
</event>
<event>
 4    1  0.4263413E+000  0.1964425E+03  0.7546771E-02  0.1152776E+00
         21   -1    0    0  501  502  0.00000000000E+00  0.00000000000E+00  0.31477004801E+03  0.31477004801E+03  0.00000000000E+00 0.  1.
         21   -1    0    0  502  503 -0.00000000000E+00 -0.00000000000E+00 -0.20390931033E+03  0.20390931033E+03  0.00000000000E+00 0.  1.
          6    1    1    2  501    0  0.91481541041E+02 -0.17081642595E+02  0.21919886556E+03  0.29434299300E+03  0.17300000000E+03 0.  1.
         -6    1    1    2    0  503 -0.91481541041E+02  0.17081642595E+02 -0.10833812788E+03  0.22433636535E+03  0.17300000000E+03 0.  1.
<mgrwt>
<rscale>  2 0.19644250E+03</rscale>
<asrwt>0</asrwt>
<pdfrwt beam="1">  1       21 0.48426161E-01 0.19644250E+03</pdfrwt>
<pdfrwt beam="2">  1       21 0.31370663E-01 0.19644250E+03</pdfrwt>
<totfact> 0.39693317E+04</totfact>
</mgrwt>
</event>
<event>
 4    1  0.4263413E+000  0.1866507E+03  0.7546771E-02  0.1161517E+00
         21   -1    0    0  501  502  0.00000000000E+00  0.00000000000E+00  0.17574308267E+04  0.17574308267E+04  0.00000000000E+00 0.  1.
         21   -1    0    0  502  503 -0.00000000000E+00 -0.00000000000E+00 -0.19831573653E+02  0.19831573653E+02  0.00000000000E+00 0.  1.
          6    1    1    2  501    0  0.29400770261E+01  0.70006071535E+02  0.88668897827E+03  0.90612131543E+03  0.17300000000E+03 0.  1.
         -6    1    1    2    0  503 -0.29400770261E+01 -0.70006071535E+02  0.85091027474E+03  0.87114108488E+03  0.17300000000E+03 0.  1.
<mgrwt>
<rscale>  2 0.18665073E+03</rscale>
<asrwt>0</asrwt>
<pdfrwt beam="1">  1       21 0.27037385E+00 0.18665073E+03</pdfrwt>
<pdfrwt beam="2">  1       21 0.30510127E-02 0.18665073E+03</pdfrwt>
<totfact> 0.31289413E+04</totfact>
</mgrwt>
</event>
<event>
 4    1  0.4263413E+000  0.1991412E+03  0.7546771E-02  0.1150466E+00
         21   -1    0    0  503  502  0.00000000000E+00  0.00000000000E+00  0.24576160699E+03  0.24576160699E+03  0.00000000000E+00 0.  1.
         21   -1    0    0  501  503 -0.00000000000E+00 -0.00000000000E+00 -0.20401636269E+03  0.20401636269E+03  0.00000000000E+00 0.  1.
          6    1    1    2  501    0  0.43151641602E+02  0.88691433988E+02 -0.81953614963E+02  0.21534537293E+03  0.17300000000E+03 0.  1.
         -6    1    1    2    0  502 -0.43151641602E+02 -0.88691433988E+02  0.12369885926E+03  0.23443259675E+03  0.17300000000E+03 0.  1.
<mgrwt>
<rscale>  2 0.19914124E+03</rscale>
<asrwt>0</asrwt>
<pdfrwt beam="1">  1       21 0.37809478E-01 0.19914124E+03</pdfrwt>
<pdfrwt beam="2">  1       21 0.31387133E-01 0.19914124E+03</pdfrwt>
<totfact> 0.65618719E+04</totfact>
</mgrwt>
</event>
<event>
 4    1  0.4263413E+000  0.1890276E+03  0.7546771E-02  0.1159341E+00
         21   -1    0    0  501  502  0.00000000000E+00  0.00000000000E+00  0.18457808405E+03  0.18457808405E+03  0.00000000000E+00 0.  1.
         21   -1    0    0  502  503 -0.00000000000E+00 -0.00000000000E+00 -0.29610459639E+03  0.29610459639E+03  0.00000000000E+00 0.  1.
          6    1    1    2  501    0  0.51728268113E+02  0.55916266915E+02  0.85656655547E+02  0.20752952866E+03  0.17300000000E+03 0.  1.
         -6    1    1    2    0  503 -0.51728268113E+02 -0.55916266915E+02 -0.19718316788E+03  0.27315315177E+03  0.17300000000E+03 0.  1.
<mgrwt>
<rscale>  2 0.18902762E+03</rscale>
<asrwt>0</asrwt>
<pdfrwt beam="1">  1       21 0.28396628E-01 0.18902762E+03</pdfrwt>
<pdfrwt beam="2">  1       21 0.45554553E-01 0.18902762E+03</pdfrwt>
<totfact> 0.54877602E+04</totfact>
</mgrwt>
</event>
<event>
 4    1  0.4263413E+000  0.2071842E+03  0.7546771E-02  0.1143815E+00
         21   -1    0    0  501  502  0.00000000000E+00  0.00000000000E+00  0.60029081926E+03  0.60029081926E+03  0.00000000000E+00 0.  1.
         21   -1    0    0  502  503 -0.00000000000E+00 -0.00000000000E+00 -0.12661258418E+03  0.12661258418E+03  0.00000000000E+00 0.  1.
          6    1    1    2  501    0  0.39539097332E+01 -0.11393272307E+03  0.47661422007E+03  0.51969838710E+03  0.17300000000E+03 0.  1.
         -6    1    1    2    0  503 -0.39539097332E+01  0.11393272307E+03 -0.29359849874E+01  0.20720501634E+03  0.17300000000E+03 0.  1.
<mgrwt>
<rscale>  2 0.20718421E+03</rscale>
<asrwt>0</asrwt>
<pdfrwt beam="1">  1       21 0.92352432E-01 0.20718421E+03</pdfrwt>
<pdfrwt beam="2">  1       21 0.19478860E-01 0.20718421E+03</pdfrwt>
<totfact> 0.23788946E+04</totfact>
</mgrwt>
</event>
<event>
 4    1  0.4263413E+000  0.2538915E+03  0.7546771E-02  0.1110870E+00
         21   -1    0    0  503  502  0.00000000000E+00  0.00000000000E+00  0.27521769571E+03  0.27521769571E+03  0.00000000000E+00 0.  1.
         21   -1    0    0  501  503 -0.00000000000E+00 -0.00000000000E+00 -0.46174834223E+03  0.46174834223E+03  0.00000000000E+00 0.  1.
          6    1    1    2  501    0  0.43194295618E+02 -0.18073777073E+03 -0.35192851808E+03  0.43395226786E+03  0.17300000000E+03 0.  1.
         -6    1    1    2    0  502 -0.43194295618E+02  0.18073777073E+03  0.16539787156E+03  0.30301377008E+03  0.17300000000E+03 0.  1.
<mgrwt>
<rscale>  2 0.25389149E+03</rscale>
<asrwt>0</asrwt>
<pdfrwt beam="1">  1       21 0.42341184E-01 0.25389149E+03</pdfrwt>
<pdfrwt beam="2">  1       21 0.71038206E-01 0.25389149E+03</pdfrwt>
<totfact> 0.92636365E+03</totfact>
</mgrwt>
</event>
<event>
 4    1  0.4263413E+000  0.1929531E+03  0.7546771E-02  0.1155824E+00
         21   -1    0    0  503  502  0.00000000000E+00  0.00000000000E+00  0.62369307867E+03  0.62369307867E+03  0.00000000000E+00 0.  1.
         21   -1    0    0  501  503 -0.00000000000E+00 -0.00000000000E+00 -0.86014075837E+02  0.86014075837E+02  0.00000000000E+00 0. -1.
          6    1    1    2  501    0 -0.31639678125E+01  0.85392606684E+02  0.72546100634E+02  0.20614035191E+03  0.17300000000E+03 0. -1.
         -6    1    1    2    0  502  0.31639678125E+01 -0.85392606684E+02  0.46513290220E+03  0.50356680260E+03  0.17300000000E+03 0.  1.
<mgrwt>
<rscale>  2 0.19295312E+03</rscale>
<asrwt>0</asrwt>
<pdfrwt beam="1">  1       21 0.95952778E-01 0.19295312E+03</pdfrwt>
<pdfrwt beam="2">  1       21 0.13232935E-01 0.19295312E+03</pdfrwt>
<totfact> 0.44545986E+04</totfact>
</mgrwt>
</event>
<event>
 4    1  0.4263413E+000  0.2992040E+03  0.7546771E-02  0.1085639E+00
         21   -1    0    0  503  502  0.00000000000E+00  0.00000000000E+00  0.17316985094E+04  0.17316985094E+04  0.00000000000E+00 0. -1.
         21   -1    0    0  501  503 -0.00000000000E+00 -0.00000000000E+00 -0.60742219684E+02  0.60742219684E+02  0.00000000000E+00 0.  1.
          6    1    1    2  501    0 -0.12529905779E+03 -0.20950935605E+03  0.11813277377E+04  0.12186296599E+04  0.17300000000E+03 0. -1.
         -6    1    1    2    0  502  0.12529905779E+03  0.20950935605E+03  0.48962855200E+03  0.57381106916E+03  0.17300000000E+03 0.  1.
<mgrwt>
<rscale>  2 0.29920398E+03</rscale>
<asrwt>0</asrwt>
<pdfrwt beam="1">  1       21 0.26641512E+00 0.29920398E+03</pdfrwt>
<pdfrwt beam="2">  1       21 0.93449582E-02 0.29920398E+03</pdfrwt>
<totfact> 0.44436627E+03</totfact>
</mgrwt>
</event>
<event>
 4    1  0.4263413E+000  0.2358674E+03  0.7546771E-02  0.1122577E+00
         21   -1    0    0  501  502  0.00000000000E+00  0.00000000000E+00  0.65046702021E+03  0.65046702021E+03  0.00000000000E+00 0. -1.
         21   -1    0    0  502  503 -0.00000000000E+00 -0.00000000000E+00 -0.13743567038E+03  0.13743567038E+03  0.00000000000E+00 0.  1.
          6    1    1    2  501    0  0.15613662667E+03 -0.36411528388E+02  0.49862230362E+03  0.55159554680E+03  0.17300000000E+03 0. -1.
         -6    1    1    2    0  503 -0.15613662667E+03  0.36411528388E+02  0.14409046211E+02  0.23630714378E+03  0.17300000000E+03 0.  1.
<mgrwt>
<rscale>  2 0.23586743E+03</rscale>
<asrwt>0</asrwt>
<pdfrwt beam="1">  1       21 0.10007185E+00 0.23586743E+03</pdfrwt>
<pdfrwt beam="2">  1       21 0.21143950E-01 0.23586743E+03</pdfrwt>
<totfact> 0.16608306E+04</totfact>
</mgrwt>
</event>
<event>
 4    1  0.4263413E+000  0.2078483E+03  0.7546771E-02  0.1143281E+00
         21   -1    0    0  501  502  0.00000000000E+00  0.00000000000E+00  0.12225576121E+03  0.12225576121E+03  0.00000000000E+00 0. -1.
         21   -1    0    0  502  503 -0.00000000000E+00 -0.00000000000E+00 -0.47973355948E+03  0.47973355948E+03  0.00000000000E+00 0.  1.
          6    1    1    2  501    0  0.93297010668E+02 -0.67583827817E+02 -0.24256760303E+02  0.20925892192E+03  0.17300000000E+03 0. -1.
         -6    1    1    2    0  503 -0.93297010668E+02  0.67583827817E+02 -0.33322103796E+03  0.39273039878E+03  0.17300000000E+03 0.  1.
<mgrwt>
<rscale>  2 0.20784828E+03</rscale>
<asrwt>0</asrwt>
<pdfrwt beam="1">  1       21 0.18808578E-01 0.20784828E+03</pdfrwt>
<pdfrwt beam="2">  1       21 0.73805164E-01 0.20784828E+03</pdfrwt>
<totfact> 0.42317029E+04</totfact>
</mgrwt>
</event>
<event>
 4    1  0.4263413E+000  0.1973472E+03  0.7546771E-02  0.1151997E+00
         21   -1    0    0  503  502  0.00000000000E+00  0.00000000000E+00  0.11065570548E+03  0.11065570548E+03  0.00000000000E+00 0.  1.
         21   -1    0    0  501  503 -0.00000000000E+00 -0.00000000000E+00 -0.42774437317E+03  0.42774437317E+03  0.00000000000E+00 0. -1.
          6    1    1    2  501    0 -0.54499744396E+01 -0.94801004742E+02 -0.27185855907E+03  0.33593601900E+03  0.17300000000E+03 0. -1.
         -6    1    1    2    0  502  0.54499744396E+01  0.94801004742E+02 -0.45230108621E+02  0.20246405964E+03  0.17300000000E+03 0.  1.
<mgrwt>
<rscale>  2 0.19734724E+03</rscale>
<asrwt>0</asrwt>
<pdfrwt beam="1">  1       21 0.17023955E-01 0.19734724E+03</pdfrwt>
<pdfrwt beam="2">  1       21 0.65806827E-01 0.19734724E+03</pdfrwt>
<totfact> 0.65877743E+04</totfact>
</mgrwt>
</event>
<event>
 4    1  0.4263413E+000  0.2273880E+03  0.7546771E-02  0.1128492E+00
         21   -1    0    0  503  502  0.00000000000E+00  0.00000000000E+00  0.15692789353E+03  0.15692789353E+03  0.00000000000E+00 0. -1.
         21   -1    0    0  501  503 -0.00000000000E+00 -0.00000000000E+00 -0.10211940110E+04  0.10211940110E+04  0.00000000000E+00 0. -1.
          6    1    1    2  501    0 -0.12768326791E+03  0.73981797667E+02 -0.91693901817E+03  0.94471291212E+03  0.17300000000E+03 0. -1.
         -6    1    1    2    0  502  0.12768326791E+03 -0.73981797667E+02  0.52672900667E+02  0.23340899244E+03  0.17300000000E+03 0. -1.
<mgrwt>
<rscale>  2 0.22738805E+03</rscale>
<asrwt>0</asrwt>
<pdfrwt beam="1">  1       21 0.24142752E-01 0.22738805E+03</pdfrwt>
<pdfrwt beam="2">  1       21 0.15710677E+00 0.22738805E+03</pdfrwt>
<totfact> 0.41580271E+03</totfact>
</mgrwt>
</event>
<event>
 4    1  0.4263413E+000  0.2215767E+03  0.7546771E-02  0.1132713E+00
         21   -1    0    0  503  502  0.00000000000E+00  0.00000000000E+00  0.15131836425E+04  0.15131836425E+04  0.00000000000E+00 0. -1.
         21   -1    0    0  501  503 -0.00000000000E+00 -0.00000000000E+00 -0.32490585138E+02  0.32490585138E+02  0.00000000000E+00 0.  1.
          6    1    1    2  501    0 -0.48352283494E+02  0.12972776786E+03  0.76908539254E+03  0.80036777677E+03  0.17300000000E+03 0.  1.
         -6    1    1    2    0  502  0.48352283494E+02 -0.12972776786E+03  0.71160766479E+03  0.74530645083E+03  0.17300000000E+03 0. -1.
<mgrwt>
<rscale>  2 0.22157671E+03</rscale>
<asrwt>0</asrwt>
<pdfrwt beam="1">  1       21 0.23279743E+00 0.22157671E+03</pdfrwt>
<pdfrwt beam="2">  1       21 0.49985527E-02 0.22157671E+03</pdfrwt>
<totfact> 0.22131379E+04</totfact>
</mgrwt>
</event>
<event>
 4    1  0.4263413E+000  0.1900866E+03  0.7546771E-02  0.1158383E+00
         21   -1    0    0  501  502  0.00000000000E+00  0.00000000000E+00  0.22612614567E+02  0.22612614567E+02  0.00000000000E+00 0.  1.
         21   -1    0    0  502  503 -0.00000000000E+00 -0.00000000000E+00 -0.16798466461E+04  0.16798466461E+04  0.00000000000E+00 0.  1.
          6    1    1    2  501    0 -0.53235201887E+02  0.58051152464E+02 -0.64061998218E+03  0.66822667156E+03  0.17300000000E+03 0.  1.
         -6    1    1    2    0  503  0.53235201887E+02 -0.58051152464E+02 -0.10166140494E+04  0.10342325892E+04  0.17300000000E+03 0.  1.
<mgrwt>
<rscale>  2 0.19008662E+03</rscale>
<asrwt>0</asrwt>
<pdfrwt beam="1">  1       21 0.34788643E-02 0.19008662E+03</pdfrwt>
<pdfrwt beam="2">  1       21 0.25843791E+00 0.19008662E+03</pdfrwt>
<totfact> 0.29425914E+04</totfact>
</mgrwt>
</event>
<event>
 4    1  0.4263413E+000  0.2993048E+03  0.7546771E-02  0.1085589E+00
         21   -1    0    0  503  502  0.00000000000E+00  0.00000000000E+00  0.15047468546E+03  0.15047468546E+03  0.00000000000E+00 0. -1.
         21   -1    0    0  501  503 -0.00000000000E+00 -0.00000000000E+00 -0.16816148043E+04  0.16816148043E+04  0.00000000000E+00 0. -1.
          6    1    1    2  501    0 -0.65578042027E+02  0.23527403481E+03 -0.15018171803E+04  0.15313517539E+04  0.17300000000E+03 0. -1.
         -6    1    1    2    0  502  0.65578042027E+02 -0.23527403481E+03 -0.29322938531E+02  0.30073773587E+03  0.17300000000E+03 0. -1.
<mgrwt>
<rscale>  2 0.29930478E+03</rscale>
<asrwt>0</asrwt>
<pdfrwt beam="1">  1       21 0.23149953E-01 0.29930478E+03</pdfrwt>
<pdfrwt beam="2">  1       21 0.25870995E+00 0.29930478E+03</pdfrwt>
<totfact> 0.93127540E+02</totfact>
</mgrwt>
</event>
